version 2
run ThreeNodes-0-20160511-00:05:29-1860
attr configname ThreeNodes
attr datetime 20160511-00:05:29
attr experiment ThreeNodes
attr inifile omnetpp.ini
attr iterationvars $0=0
attr iterationvars2 "$0=0, $repetition=0"
attr measurement $0=0
attr network P2P_Wireless_Wifi
attr processid 1860
attr repetition 0
attr replication #0
attr resultdir results
attr runnumber 0
attr seedset 0

vector 2  P2P_Wireless_Wifi.node[0].batteryStats  capacity  ETV
attr unit  mW-s
vector 9  P2P_Wireless_Wifi.node[1].batteryStats  capacity  ETV
attr unit  mW-s
vector 16  P2P_Wireless_Wifi.node[2].batteryStats  capacity  ETV
attr unit  mW-s
2	0	0	2160000
2	0	0	2160000
2	19	1	2159400
2	31	2	2158800
2	43	3	2158200
2	55	4	2157600
2	67	5	2157000
2	79	6	2156400
2	91	7	2155800
2	103	8	2155200
2	115	9	2154600
2	127	10	2154000
2	139	11	2153400
2	548	12	2152800.353064
2	560	13	2152200.353064
2	572	14	2151600.353064
2	584	15	2151000.353064
2	992	16	2150400.74448
2	1004	17	2149800.74448
2	1016	18	2149200.74448
2	1028	19	2148600.74448
2	1040	20	2148000.74448
2	1052	21	2147400.74448
2	1064	22	2146800.74448
2	1076	23	2146200.74448
2	1474	24	2145601.059192
2	1486	25	2145001.059192
2	1498	26	2144401.059192
2	1510	27	2143801.059192
2	1522	28	2143201.059192
2	2298	29	2142601.98246
2	2310	30	2142001.98246
2	2322	31	2141401.98246
2	2334	32	2140801.98246
2	2346	33	2140201.98246
2	2358	34	2139601.98246
2	2370	35	2139001.98246
2	2382	36	2138401.98246
2	2394	37	2137801.98246
2	2406	38	2137201.98246
2	2418	39	2136601.98246
2	2430	40	2136001.98246
2	2442	41	2135401.98246
2	2454	42	2134801.98246
2	2466	43	2134201.98246
2	2478	44	2133601.98246
2	2490	45	2133001.98246
2	2502	46	2132401.98246
2	2514	47	2131801.98246
2	2526	48	2131201.98246
2	2538	49	2130601.98246
2	2550	50	2130001.98246
2	2562	51	2129401.98246
2	2574	52	2128801.98246
2	2586	53	2128201.98246
2	2598	54	2127601.98246
2	2610	55	2127001.98246
2	2622	56	2126401.98246
2	2634	57	2125801.98246
2	2646	58	2125201.98246
2	2658	59	2124601.98246
2	2670	60	2124001.98246
2	2682	61	2123401.98246
2	2694	62	2122801.98246
2	2706	63	2122201.98246
2	2718	64	2121601.98246
2	2730	65	2121001.98246
2	2742	66	2120401.98246
2	2754	67	2119801.98246
2	2766	68	2119201.98246
2	2778	69	2118601.98246
2	2790	70	2118001.98246
2	2802	71	2117401.98246
2	2814	72	2116801.98246
2	2826	73	2116201.98246
2	2838	74	2115601.98246
2	2850	75	2115001.98246
2	2862	76	2114401.98246
2	2874	77	2113801.98246
2	2886	78	2113201.98246
2	2898	79	2112601.98246
2	2910	80	2112001.98246
2	2922	81	2111401.98246
2	2934	82	2110801.98246
2	2946	83	2110201.98246
2	2958	84	2109601.98246
2	2970	85	2109001.98246
2	2982	86	2108401.98246
2	2994	87	2107801.98246
2	3006	88	2107201.98246
2	3018	89	2106601.98246
2	3030	90	2106001.98246
2	3042	91	2105401.98246
2	3054	92	2104801.98246
2	3066	93	2104201.98246
2	3078	94	2103601.98246
2	3090	95	2103001.98246
2	3102	96	2102401.98246
2	3114	97	2101801.98246
2	3126	98	2101201.98246
2	3138	99	2100601.98246
9	0	0	2160000
9	0	0	2160000
9	20	1	2159400
9	32	2	2158800
9	44	3	2158200
9	56	4	2157600
9	68	5	2157000
9	80	6	2156400
9	92	7	2155800
9	104	8	2155200
9	116	9	2154600
9	128	10	2154000
9	140	11	2153400
9	549	12	2152800.608556
9	561	13	2152200.608556
9	573	14	2151600.608556
9	585	15	2151000.608556
9	993	16	2150401.217112
9	1005	17	2149801.217112
9	1017	18	2149201.217112
9	1029	19	2148601.217112
9	1041	20	2148001.217112
9	1053	21	2147401.217112
9	1065	22	2146801.217112
9	1077	23	2146201.217112
9	1475	24	2145601.570176
9	1487	25	2145001.570176
9	1499	26	2144401.570176
9	1511	27	2143801.570176
9	1523	28	2143201.570176
9	2299	29	2142602.237952
9	2311	30	2142002.237952
9	2323	31	2141402.237952
9	2335	32	2140802.237952
9	2347	33	2140202.237952
9	2359	34	2139602.237952
9	2371	35	2139002.237952
9	2383	36	2138402.237952
9	2395	37	2137802.237952
9	2407	38	2137202.237952
9	2419	39	2136602.237952
9	2431	40	2136002.237952
9	2443	41	2135402.237952
9	2455	42	2134802.237952
9	2467	43	2134202.237952
9	2479	44	2133602.237952
9	2491	45	2133002.237952
9	2503	46	2132402.237952
9	2515	47	2131802.237952
9	2527	48	2131202.237952
9	2539	49	2130602.237952
9	2551	50	2130002.237952
9	2563	51	2129402.237952
9	2575	52	2128802.237952
9	2587	53	2128202.237952
9	2599	54	2127602.237952
9	2611	55	2127002.237952
9	2623	56	2126402.237952
9	2635	57	2125802.237952
9	2647	58	2125202.237952
9	2659	59	2124602.237952
9	2671	60	2124002.237952
9	2683	61	2123402.237952
9	2695	62	2122802.237952
9	2707	63	2122202.237952
9	2719	64	2121602.237952
9	2731	65	2121002.237952
9	2743	66	2120402.237952
9	2755	67	2119802.237952
9	2767	68	2119202.237952
9	2779	69	2118602.237952
9	2791	70	2118002.237952
9	2803	71	2117402.237952
9	2815	72	2116802.237952
9	2827	73	2116202.237952
9	2839	74	2115602.237952
9	2851	75	2115002.237952
9	2863	76	2114402.237952
9	2875	77	2113802.237952
9	2887	78	2113202.237952
9	2899	79	2112602.237952
9	2911	80	2112002.237952
9	2923	81	2111402.237952
9	2935	82	2110802.237952
9	2947	83	2110202.237952
9	2959	84	2109602.237952
9	2971	85	2109002.237952
9	2983	86	2108402.237952
9	2995	87	2107802.237952
9	3007	88	2107202.237952
9	3019	89	2106602.237952
9	3031	90	2106002.237952
9	3043	91	2105402.237952
9	3055	92	2104802.237952
9	3067	93	2104202.237952
9	3079	94	2103602.237952
9	3091	95	2103002.237952
9	3103	96	2102402.237952
9	3115	97	2101802.237952
9	3127	98	2101202.237952
9	3139	99	2100602.237952
16	0	0	2160000
16	0	0	2160000
16	21	1	2159400
16	33	2	2158800
16	45	3	2158200
16	57	4	2157600
16	69	5	2157000
16	81	6	2156400
16	93	7	2155800
16	105	8	2155200
16	117	9	2154600
16	129	10	2154000
16	141	11	2153400
16	550	12	2152800.353064
16	562	13	2152200.353064
16	574	14	2151600.353064
16	586	15	2151000.353064
16	994	16	2150400.706128
16	1006	17	2149800.706128
16	1018	18	2149200.706128
16	1030	19	2148600.706128
16	1042	20	2148000.706128
16	1054	21	2147400.706128
16	1066	22	2146800.706128
16	1078	23	2146200.706128
16	1476	24	2145601.314684
16	1488	25	2145001.314684
16	1500	26	2144401.314684
16	1512	27	2143801.314684
16	1524	28	2143201.314684
16	2300	29	2142602.276304
16	2312	30	2142002.276304
16	2324	31	2141402.276304
16	2336	32	2140802.276304
16	2348	33	2140202.276304
16	2360	34	2139602.276304
16	2372	35	2139002.276304
16	2384	36	2138402.276304
16	2396	37	2137802.276304
16	2408	38	2137202.276304
16	2420	39	2136602.276304
16	2432	40	2136002.276304
16	2444	41	2135402.276304
16	2456	42	2134802.276304
16	2468	43	2134202.276304
16	2480	44	2133602.276304
16	2492	45	2133002.276304
16	2504	46	2132402.276304
16	2516	47	2131802.276304
16	2528	48	2131202.276304
16	2540	49	2130602.276304
16	2552	50	2130002.276304
16	2564	51	2129402.276304
16	2576	52	2128802.276304
16	2588	53	2128202.276304
16	2600	54	2127602.276304
16	2612	55	2127002.276304
16	2624	56	2126402.276304
16	2636	57	2125802.276304
16	2648	58	2125202.276304
16	2660	59	2124602.276304
16	2672	60	2124002.276304
16	2684	61	2123402.276304
16	2696	62	2122802.276304
16	2708	63	2122202.276304
16	2720	64	2121602.276304
16	2732	65	2121002.276304
16	2744	66	2120402.276304
16	2756	67	2119802.276304
16	2768	68	2119202.276304
16	2780	69	2118602.276304
16	2792	70	2118002.276304
16	2804	71	2117402.276304
16	2816	72	2116802.276304
16	2828	73	2116202.276304
16	2840	74	2115602.276304
16	2852	75	2115002.276304
16	2864	76	2114402.276304
16	2876	77	2113802.276304
16	2888	78	2113202.276304
16	2900	79	2112602.276304
16	2912	80	2112002.276304
16	2924	81	2111402.276304
16	2936	82	2110802.276304
16	2948	83	2110202.276304
16	2960	84	2109602.276304
16	2972	85	2109002.276304
16	2984	86	2108402.276304
16	2996	87	2107802.276304
16	3008	88	2107202.276304
16	3020	89	2106602.276304
16	3032	90	2106002.276304
16	3044	91	2105402.276304
16	3056	92	2104802.276304
16	3068	93	2104202.276304
16	3080	94	2103602.276304
16	3092	95	2103002.276304
16	3104	96	2102402.276304
16	3116	97	2101802.276304
16	3128	98	2101202.276304
16	3140	99	2100602.276304
