version 2
run TwoNodes-2-20160329-21:08:02-15766
attr configname TwoNodes
attr datetime 20160329-21:08:02
attr experiment TwoNodes
attr inifile omnetpp.ini
attr iterationvars $0=0
attr iterationvars2 "$0=0, $repetition=2"
attr measurement $0=0
attr network P2P_Wireless_Wifi
attr processid 15766
attr repetition 2
attr replication #2
attr resultdir results
attr runnumber 2
attr seedset 0

vector 30  P2P_Wireless_Wifi.node[0].batteryStats  capacity  ETV
attr unit  mW-s
vector 37  P2P_Wireless_Wifi.node[1].batteryStats  capacity  ETV
attr unit  mW-s
30	0	0	2160000
30	0	0	2160000
30	13	1	2159400
30	33	2	2158800
30	41	3	2158200
30	49	4	2157600
30	57	5	2157000
30	65	6	2156400
30	85	7	2155800
30	93	8	2155200
30	101	9	2154600
30	109	10	2154000
30	117	11	2153400
30	149	12	2152800.084036
30	157	13	2152200.084036
30	165	14	2151600.084036
30	173	15	2151000.084036
30	181	16	2150400.084036
30	213	17	2149800.168072
30	221	18	2149200.168072
30	229	19	2148600.168072
30	237	20	2148000.168072
30	245	21	2147400.168072
30	277	22	2146800.252108
30	285	23	2146200.252108
30	293	24	2145600.252108
30	301	25	2145000.252108
30	309	26	2144400.252108
30	341	27	2143800.336144
30	349	28	2143200.336144
30	357	29	2142600.336144
30	365	30	2142000.336144
30	373	31	2141400.336144
30	405	32	2140800.42018
30	413	33	2140200.42018
30	421	34	2139600.42018
30	429	35	2139000.42018
30	437	36	2138400.42018
30	469	37	2137800.504216
30	477	38	2137200.504216
30	485	39	2136600.504216
30	493	40	2136000.504216
30	501	41	2135400.504216
30	533	42	2134800.588252
30	541	43	2134200.588252
30	549	44	2133600.588252
30	557	45	2133000.588252
30	565	46	2132400.588252
30	597	47	2131800.672288
30	605	48	2131200.672288
30	613	49	2130600.672288
30	621	50	2130000.672288
30	629	51	2129400.672288
30	661	52	2128800.756324
30	669	53	2128200.756324
30	677	54	2127600.756324
30	685	55	2127000.756324
30	693	56	2126400.756324
30	722	57	2125800.84036
30	730	58	2125200.84036
30	738	59	2124600.84036
30	746	60	2124000.84036
30	754	61	2123400.84036
30	786	62	2122800.924396
30	794	63	2122200.924396
30	802	64	2121600.924396
30	810	65	2121000.924396
30	818	66	2120400.924396
30	850	67	2119801.008432
30	858	68	2119201.008432
30	866	69	2118601.008432
30	874	70	2118001.008432
30	882	71	2117401.008432
30	914	72	2116801.092468
30	922	73	2116201.092468
30	930	74	2115601.092468
30	938	75	2115001.092468
30	946	76	2114401.092468
30	978	77	2113801.176504
30	986	78	2113201.176504
30	994	79	2112601.176504
30	1002	80	2112001.176504
30	1010	81	2111401.176504
30	1042	82	2110801.26054
30	1050	83	2110201.26054
30	1058	84	2109601.26054
30	1066	85	2109001.26054
30	1074	86	2108401.26054
30	1103	87	2107801.344576
30	1111	88	2107201.344576
30	1119	89	2106601.344576
30	1127	90	2106001.344576
30	1135	91	2105401.344576
30	1167	92	2104801.428612
30	1175	93	2104201.428612
30	1183	94	2103601.428612
30	1191	95	2103001.428612
30	1199	96	2102401.428612
30	1228	97	2101801.512648
30	1236	98	2101201.512648
30	1244	99	2100601.512648
30	1252	100	2100001.512648
30	1260	101	2099401.512648
30	1292	102	2098801.596684
30	1300	103	2098201.596684
30	1308	104	2097601.596684
30	1316	105	2097001.596684
30	1324	106	2096401.596684
30	1356	107	2095801.68072
30	1364	108	2095201.68072
30	1372	109	2094601.68072
30	1380	110	2094001.68072
30	1388	111	2093401.68072
30	1420	112	2092801.764756
30	1428	113	2092201.764756
30	1436	114	2091601.764756
30	1444	115	2091001.764756
30	1452	116	2090401.764756
30	1484	117	2089801.848792
30	1492	118	2089201.848792
30	1500	119	2088601.848792
30	1508	120	2088001.848792
30	1516	121	2087401.848792
30	1548	122	2086801.932828
30	1556	123	2086201.932828
30	1564	124	2085601.932828
30	1572	125	2085001.932828
30	1580	126	2084401.932828
30	1609	127	2083802.016864
30	1617	128	2083202.016864
30	1625	129	2082602.016864
30	1633	130	2082002.016864
30	1641	131	2081402.016864
30	1670	132	2080802.1009
30	1678	133	2080202.1009
30	1686	134	2079602.1009
30	1694	135	2079002.1009
30	1702	136	2078402.1009
30	1734	137	2077802.184936
30	1742	138	2077202.184936
30	1750	139	2076602.184936
30	1758	140	2076002.184936
30	1766	141	2075402.184936
30	1798	142	2074802.268972
30	1806	143	2074202.268972
30	1814	144	2073602.268972
30	1822	145	2073002.268972
30	1830	146	2072402.268972
30	1862	147	2071802.353008
30	1870	148	2071202.353008
30	1878	149	2070602.353008
30	1886	150	2070002.353008
30	1894	151	2069402.353008
30	1926	152	2068802.437044
30	1934	153	2068202.437044
30	1942	154	2067602.437044
30	1950	155	2067002.437044
30	1958	156	2066402.437044
30	1990	157	2065802.52108
30	1998	158	2065202.52108
30	2006	159	2064602.52108
30	2014	160	2064002.52108
30	2022	161	2063402.52108
30	2054	162	2062802.605116
30	2062	163	2062202.605116
30	2070	164	2061602.605116
30	2078	165	2061002.605116
30	2086	166	2060402.605116
30	2118	167	2059802.689152
30	2126	168	2059202.689152
30	2134	169	2058602.689152
30	2142	170	2058002.689152
30	2150	171	2057402.689152
30	2182	172	2056802.773188
30	2190	173	2056202.773188
30	2198	174	2055602.773188
30	2206	175	2055002.773188
30	2214	176	2054402.773188
30	2246	177	2053802.857224
30	2254	178	2053202.857224
30	2262	179	2052602.857224
30	2270	180	2052002.857224
30	2278	181	2051402.857224
30	2310	182	2050802.94126
30	2318	183	2050202.94126
30	2326	184	2049602.94126
30	2334	185	2049002.94126
30	2342	186	2048402.94126
30	2374	187	2047803.025296
30	2382	188	2047203.025296
30	2390	189	2046603.025296
30	2398	190	2046003.025296
30	2406	191	2045403.025296
30	2438	192	2044803.109332
30	2446	193	2044203.109332
30	2454	194	2043603.109332
30	2462	195	2043003.109332
30	2470	196	2042403.109332
30	2499	197	2041803.193368
30	2507	198	2041203.193368
30	2515	199	2040603.193368
30	2523	200	2040003.193368
30	2531	201	2039403.193368
30	2563	202	2038803.277404
30	2571	203	2038203.277404
30	2579	204	2037603.277404
30	2587	205	2037003.277404
30	2595	206	2036403.277404
30	2627	207	2035803.36144
30	2635	208	2035203.36144
30	2643	209	2034603.36144
30	2651	210	2034003.36144
30	2659	211	2033403.36144
30	2691	212	2032803.445476
30	2699	213	2032203.445476
30	2707	214	2031603.445476
30	2715	215	2031003.445476
30	2723	216	2030403.445476
30	2755	217	2029803.529512
30	2763	218	2029203.529512
30	2771	219	2028603.529512
30	2779	220	2028003.529512
30	2787	221	2027403.529512
30	2819	222	2026803.613548
30	2827	223	2026203.613548
30	2835	224	2025603.613548
30	2843	225	2025003.613548
30	2851	226	2024403.613548
30	2883	227	2023803.697584
30	2891	228	2023203.697584
30	2899	229	2022603.697584
30	2907	230	2022003.697584
30	2915	231	2021403.697584
30	2947	232	2020803.78162
30	2955	233	2020203.78162
30	2963	234	2019603.78162
30	2971	235	2019003.78162
30	2979	236	2018403.78162
30	3011	237	2017803.865656
30	3019	238	2017203.865656
30	3027	239	2016603.865656
30	3035	240	2016003.865656
30	3043	241	2015403.865656
30	3075	242	2014803.949692
30	3083	243	2014203.949692
30	3091	244	2013603.949692
30	3099	245	2013003.949692
30	3107	246	2012403.949692
30	3139	247	2011804.033728
30	3147	248	2011204.033728
30	3155	249	2010604.033728
30	3163	250	2010004.033728
30	3171	251	2009404.033728
30	3203	252	2008804.117764
30	3211	253	2008204.117764
30	3219	254	2007604.117764
30	3227	255	2007004.117764
30	3235	256	2006404.117764
30	3267	257	2005804.2018
30	3275	258	2005204.2018
30	3283	259	2004604.2018
30	3291	260	2004004.2018
30	3299	261	2003404.2018
30	3331	262	2002804.285836
30	3339	263	2002204.285836
30	3347	264	2001604.285836
30	3355	265	2001004.285836
30	3363	266	2000404.285836
30	3395	267	1999804.369872
30	3403	268	1999204.369872
30	3411	269	1998604.369872
30	3419	270	1998004.369872
30	3427	271	1997404.369872
30	3459	272	1996804.453908
30	3467	273	1996204.453908
30	3475	274	1995604.453908
30	3483	275	1995004.453908
30	3491	276	1994404.453908
30	3523	277	1993804.537944
30	3531	278	1993204.537944
30	3539	279	1992604.537944
30	3547	280	1992004.537944
30	3555	281	1991404.537944
30	3587	282	1990804.62198
30	3595	283	1990204.62198
30	3603	284	1989604.62198
30	3611	285	1989004.62198
30	3619	286	1988404.62198
30	3648	287	1987804.706016
30	3656	288	1987204.706016
30	3664	289	1986604.706016
30	3672	290	1986004.706016
30	3680	291	1985404.706016
30	3712	292	1984804.790052
30	3720	293	1984204.790052
30	3728	294	1983604.790052
30	3736	295	1983004.790052
30	3744	296	1982404.790052
30	3773	297	1981804.874088
30	3781	298	1981204.874088
30	3789	299	1980604.874088
30	3797	300	1980004.874088
30	3805	301	1979404.874088
30	3837	302	1978804.958124
30	3845	303	1978204.958124
30	3853	304	1977604.958124
30	3861	305	1977004.958124
30	3869	306	1976404.958124
30	3901	307	1975805.04216
30	3909	308	1975205.04216
30	3917	309	1974605.04216
30	3925	310	1974005.04216
30	3933	311	1973405.04216
30	3965	312	1972805.126196
30	3973	313	1972205.126196
30	3981	314	1971605.126196
30	3989	315	1971005.126196
30	3997	316	1970405.126196
30	4029	317	1969805.210232
30	4037	318	1969205.210232
30	4045	319	1968605.210232
30	4053	320	1968005.210232
30	4061	321	1967405.210232
30	4093	322	1966805.294268
30	4101	323	1966205.294268
30	4109	324	1965605.294268
30	4117	325	1965005.294268
30	4125	326	1964405.294268
30	4157	327	1963805.378304
30	4165	328	1963205.378304
30	4173	329	1962605.378304
30	4181	330	1962005.378304
30	4189	331	1961405.378304
30	4221	332	1960805.46234
30	4229	333	1960205.46234
30	4237	334	1959605.46234
30	4245	335	1959005.46234
30	4253	336	1958405.46234
30	4282	337	1957805.546376
30	4290	338	1957205.546376
30	4298	339	1956605.546376
30	4306	340	1956005.546376
30	4314	341	1955405.546376
30	4346	342	1954805.630412
30	4354	343	1954205.630412
30	4362	344	1953605.630412
30	4370	345	1953005.630412
30	4378	346	1952405.630412
30	4410	347	1951805.714448
30	4418	348	1951205.714448
30	4426	349	1950605.714448
30	4434	350	1950005.714448
30	4442	351	1949405.714448
30	4474	352	1948805.798484
30	4482	353	1948205.798484
30	4490	354	1947605.798484
30	4498	355	1947005.798484
30	4506	356	1946405.798484
30	4538	357	1945805.88252
30	4546	358	1945205.88252
30	4554	359	1944605.88252
30	4562	360	1944005.88252
30	4570	361	1943405.88252
30	4602	362	1942805.966556
30	4610	363	1942205.966556
30	4618	364	1941605.966556
30	4626	365	1941005.966556
30	4634	366	1940405.966556
30	4666	367	1939806.050592
30	4674	368	1939206.050592
30	4682	369	1938606.050592
30	4690	370	1938006.050592
30	4698	371	1937406.050592
30	4730	372	1936806.134628
30	4738	373	1936206.134628
30	4746	374	1935606.134628
30	4754	375	1935006.134628
30	4762	376	1934406.134628
30	4794	377	1933806.218664
30	4802	378	1933206.218664
30	4810	379	1932606.218664
30	4818	380	1932006.218664
30	4826	381	1931406.218664
30	4858	382	1930806.3027
30	4866	383	1930206.3027
30	4874	384	1929606.3027
30	4882	385	1929006.3027
30	4890	386	1928406.3027
30	4922	387	1927806.386736
30	4930	388	1927206.386736
30	4938	389	1926606.386736
30	4946	390	1926006.386736
30	4954	391	1925406.386736
30	4986	392	1924806.470772
30	4994	393	1924206.470772
30	5002	394	1923606.470772
30	5010	395	1923006.470772
30	5018	396	1922406.470772
30	5050	397	1921806.554808
30	5058	398	1921206.554808
30	5066	399	1920606.554808
30	5074	400	1920006.554808
30	5082	401	1919406.554808
30	5114	402	1918806.638844
30	5122	403	1918206.638844
30	5130	404	1917606.638844
30	5138	405	1917006.638844
30	5146	406	1916406.638844
30	5178	407	1915806.72288
30	5186	408	1915206.72288
30	5194	409	1914606.72288
30	5202	410	1914006.72288
30	5210	411	1913406.72288
30	5242	412	1912806.806916
30	5250	413	1912206.806916
30	5258	414	1911606.806916
30	5266	415	1911006.806916
30	5274	416	1910406.806916
30	5306	417	1909806.890952
30	5314	418	1909206.890952
30	5322	419	1908606.890952
30	5330	420	1908006.890952
30	5338	421	1907406.890952
30	5370	422	1906806.974988
30	5378	423	1906206.974988
30	5386	424	1905606.974988
30	5394	425	1905006.974988
30	5402	426	1904406.974988
30	5431	427	1903807.059024
30	5439	428	1903207.059024
30	5447	429	1902607.059024
30	5455	430	1902007.059024
30	5463	431	1901407.059024
30	5492	432	1900807.14306
30	5500	433	1900207.14306
30	5508	434	1899607.14306
30	5516	435	1899007.14306
30	5524	436	1898407.14306
30	5556	437	1897807.227096
30	5564	438	1897207.227096
30	5572	439	1896607.227096
30	5580	440	1896007.227096
30	5588	441	1895407.227096
30	5620	442	1894807.311132
30	5628	443	1894207.311132
30	5636	444	1893607.311132
30	5644	445	1893007.311132
30	5652	446	1892407.311132
30	5684	447	1891807.395168
30	5692	448	1891207.395168
30	5700	449	1890607.395168
30	5708	450	1890007.395168
30	5716	451	1889407.395168
30	5748	452	1888807.479204
30	5756	453	1888207.479204
30	5764	454	1887607.479204
30	5772	455	1887007.479204
30	5780	456	1886407.479204
30	5812	457	1885807.56324
30	5820	458	1885207.56324
30	5828	459	1884607.56324
30	5836	460	1884007.56324
30	5844	461	1883407.56324
30	5876	462	1882807.647276
30	5884	463	1882207.647276
30	5892	464	1881607.647276
30	5900	465	1881007.647276
30	5908	466	1880407.647276
30	5940	467	1879807.731312
30	5948	468	1879207.731312
30	5956	469	1878607.731312
30	5964	470	1878007.731312
30	5972	471	1877407.731312
30	6004	472	1876807.815348
30	6012	473	1876207.815348
30	6020	474	1875607.815348
30	6028	475	1875007.815348
30	6036	476	1874407.815348
30	6068	477	1873807.899384
30	6076	478	1873207.899384
30	6084	479	1872607.899384
30	6092	480	1872007.899384
30	6100	481	1871407.899384
30	6132	482	1870807.98342
30	6140	483	1870207.98342
30	6148	484	1869607.98342
30	6156	485	1869007.98342
30	6164	486	1868407.98342
30	6196	487	1867808.067456
30	6204	488	1867208.067456
30	6212	489	1866608.067456
30	6220	490	1866008.067456
30	6228	491	1865408.067456
30	6260	492	1864808.151492
30	6268	493	1864208.151492
30	6276	494	1863608.151492
30	6284	495	1863008.151492
30	6292	496	1862408.151492
30	6324	497	1861808.235528
30	6332	498	1861208.235528
30	6340	499	1860608.235528
30	6348	500	1860008.235528
30	6356	501	1859408.235528
30	6388	502	1858808.319564
30	6396	503	1858208.319564
30	6404	504	1857608.319564
30	6412	505	1857008.319564
30	6420	506	1856408.319564
30	6452	507	1855808.4036
30	6460	508	1855208.4036
30	6468	509	1854608.4036
30	6476	510	1854008.4036
30	6484	511	1853408.4036
30	6513	512	1852808.487636
30	6521	513	1852208.487636
30	6529	514	1851608.487636
30	6537	515	1851008.487636
30	6545	516	1850408.487636
30	6577	517	1849808.571672
30	6585	518	1849208.571672
30	6593	519	1848608.571672
30	6601	520	1848008.571672
30	6609	521	1847408.571672
30	6641	522	1846808.655708
30	6649	523	1846208.655708
30	6657	524	1845608.655708
30	6665	525	1845008.655708
30	6673	526	1844408.655708
30	6705	527	1843808.739744
30	6713	528	1843208.739744
30	6721	529	1842608.739744
30	6729	530	1842008.739744
30	6737	531	1841408.739744
30	6769	532	1840808.82378
30	6777	533	1840208.82378
30	6785	534	1839608.82378
30	6793	535	1839008.82378
30	6801	536	1838408.82378
30	6833	537	1837808.907816
30	6841	538	1837208.907816
30	6849	539	1836608.907816
30	6857	540	1836008.907816
30	6865	541	1835408.907816
30	6897	542	1834808.991852
30	6905	543	1834208.991852
30	6913	544	1833608.991852
30	6921	545	1833008.991852
30	6929	546	1832408.991852
30	6961	547	1831809.075888
30	6969	548	1831209.075888
30	6977	549	1830609.075888
30	6985	550	1830009.075888
30	6993	551	1829409.075888
30	7025	552	1828809.159924
30	7033	553	1828209.159924
30	7041	554	1827609.159924
30	7049	555	1827009.159924
30	7057	556	1826409.159924
30	7089	557	1825809.24396
30	7097	558	1825209.24396
30	7105	559	1824609.24396
30	7113	560	1824009.24396
30	7121	561	1823409.24396
30	7153	562	1822809.327996
30	7161	563	1822209.327996
30	7169	564	1821609.327996
30	7177	565	1821009.327996
30	7185	566	1820409.327996
30	7217	567	1819809.412032
30	7225	568	1819209.412032
30	7233	569	1818609.412032
30	7241	570	1818009.412032
30	7249	571	1817409.412032
30	7281	572	1816809.496068
30	7289	573	1816209.496068
30	7297	574	1815609.496068
30	7305	575	1815009.496068
30	7313	576	1814409.496068
30	7345	577	1813809.580104
30	7353	578	1813209.580104
30	7361	579	1812609.580104
30	7369	580	1812009.580104
30	7377	581	1811409.580104
30	7406	582	1810809.66414
30	7414	583	1810209.66414
30	7422	584	1809609.66414
30	7430	585	1809009.66414
30	7438	586	1808409.66414
30	7470	587	1807809.748176
30	7478	588	1807209.748176
30	7486	589	1806609.748176
30	7494	590	1806009.748176
30	7502	591	1805409.748176
30	7534	592	1804809.832212
30	7542	593	1804209.832212
30	7550	594	1803609.832212
30	7558	595	1803009.832212
30	7566	596	1802409.832212
30	7598	597	1801809.916248
30	7606	598	1801209.916248
30	7614	599	1800609.916248
37	0	0	2160000
37	0	0	2160000
37	14	1	2159400
37	34	2	2158800.084036
37	42	3	2158200.084036
37	50	4	2157600.084036
37	58	5	2157000.084036
37	66	6	2156400.084036
37	86	7	2155800.168072
37	94	8	2155200.168072
37	102	9	2154600.168072
37	110	10	2154000.168072
37	118	11	2153400.168072
37	150	12	2152800.252108
37	158	13	2152200.252108
37	166	14	2151600.252108
37	174	15	2151000.252108
37	182	16	2150400.252108
37	214	17	2149800.336144
37	222	18	2149200.336144
37	230	19	2148600.336144
37	238	20	2148000.336144
37	246	21	2147400.336144
37	278	22	2146800.42018
37	286	23	2146200.42018
37	294	24	2145600.42018
37	302	25	2145000.42018
37	310	26	2144400.42018
37	342	27	2143800.504216
37	350	28	2143200.504216
37	358	29	2142600.504216
37	366	30	2142000.504216
37	374	31	2141400.504216
37	406	32	2140800.588252
37	414	33	2140200.588252
37	422	34	2139600.588252
37	430	35	2139000.588252
37	438	36	2138400.588252
37	470	37	2137800.672288
37	478	38	2137200.672288
37	486	39	2136600.672288
37	494	40	2136000.672288
37	502	41	2135400.672288
37	534	42	2134800.756324
37	542	43	2134200.756324
37	550	44	2133600.756324
37	558	45	2133000.756324
37	566	46	2132400.756324
37	598	47	2131800.84036
37	606	48	2131200.84036
37	614	49	2130600.84036
37	622	50	2130000.84036
37	630	51	2129400.84036
37	662	52	2128800.924396
37	670	53	2128200.924396
37	678	54	2127600.924396
37	686	55	2127000.924396
37	694	56	2126400.924396
37	723	57	2125801.008432
37	731	58	2125201.008432
37	739	59	2124601.008432
37	747	60	2124001.008432
37	755	61	2123401.008432
37	787	62	2122801.092468
37	795	63	2122201.092468
37	803	64	2121601.092468
37	811	65	2121001.092468
37	819	66	2120401.092468
37	851	67	2119801.176504
37	859	68	2119201.176504
37	867	69	2118601.176504
37	875	70	2118001.176504
37	883	71	2117401.176504
37	915	72	2116801.26054
37	923	73	2116201.26054
37	931	74	2115601.26054
37	939	75	2115001.26054
37	947	76	2114401.26054
37	979	77	2113801.344576
37	987	78	2113201.344576
37	995	79	2112601.344576
37	1003	80	2112001.344576
37	1011	81	2111401.344576
37	1043	82	2110801.428612
37	1051	83	2110201.428612
37	1059	84	2109601.428612
37	1067	85	2109001.428612
37	1075	86	2108401.428612
37	1104	87	2107801.512648
37	1112	88	2107201.512648
37	1120	89	2106601.512648
37	1128	90	2106001.512648
37	1136	91	2105401.512648
37	1168	92	2104801.596684
37	1176	93	2104201.596684
37	1184	94	2103601.596684
37	1192	95	2103001.596684
37	1200	96	2102401.596684
37	1229	97	2101801.68072
37	1237	98	2101201.68072
37	1245	99	2100601.68072
37	1253	100	2100001.68072
37	1261	101	2099401.68072
37	1293	102	2098801.764756
37	1301	103	2098201.764756
37	1309	104	2097601.764756
37	1317	105	2097001.764756
37	1325	106	2096401.764756
37	1357	107	2095801.848792
37	1365	108	2095201.848792
37	1373	109	2094601.848792
37	1381	110	2094001.848792
37	1389	111	2093401.848792
37	1421	112	2092801.932828
37	1429	113	2092201.932828
37	1437	114	2091601.932828
37	1445	115	2091001.932828
37	1453	116	2090401.932828
37	1485	117	2089802.016864
37	1493	118	2089202.016864
37	1501	119	2088602.016864
37	1509	120	2088002.016864
37	1517	121	2087402.016864
37	1549	122	2086802.1009
37	1557	123	2086202.1009
37	1565	124	2085602.1009
37	1573	125	2085002.1009
37	1581	126	2084402.1009
37	1610	127	2083802.184936
37	1618	128	2083202.184936
37	1626	129	2082602.184936
37	1634	130	2082002.184936
37	1642	131	2081402.184936
37	1671	132	2080802.268972
37	1679	133	2080202.268972
37	1687	134	2079602.268972
37	1695	135	2079002.268972
37	1703	136	2078402.268972
37	1735	137	2077802.353008
37	1743	138	2077202.353008
37	1751	139	2076602.353008
37	1759	140	2076002.353008
37	1767	141	2075402.353008
37	1799	142	2074802.437044
37	1807	143	2074202.437044
37	1815	144	2073602.437044
37	1823	145	2073002.437044
37	1831	146	2072402.437044
37	1863	147	2071802.52108
37	1871	148	2071202.52108
37	1879	149	2070602.52108
37	1887	150	2070002.52108
37	1895	151	2069402.52108
37	1927	152	2068802.605116
37	1935	153	2068202.605116
37	1943	154	2067602.605116
37	1951	155	2067002.605116
37	1959	156	2066402.605116
37	1991	157	2065802.689152
37	1999	158	2065202.689152
37	2007	159	2064602.689152
37	2015	160	2064002.689152
37	2023	161	2063402.689152
37	2055	162	2062802.773188
37	2063	163	2062202.773188
37	2071	164	2061602.773188
37	2079	165	2061002.773188
37	2087	166	2060402.773188
37	2119	167	2059802.857224
37	2127	168	2059202.857224
37	2135	169	2058602.857224
37	2143	170	2058002.857224
37	2151	171	2057402.857224
37	2183	172	2056802.94126
37	2191	173	2056202.94126
37	2199	174	2055602.94126
37	2207	175	2055002.94126
37	2215	176	2054402.94126
37	2247	177	2053803.025296
37	2255	178	2053203.025296
37	2263	179	2052603.025296
37	2271	180	2052003.025296
37	2279	181	2051403.025296
37	2311	182	2050803.109332
37	2319	183	2050203.109332
37	2327	184	2049603.109332
37	2335	185	2049003.109332
37	2343	186	2048403.109332
37	2375	187	2047803.193368
37	2383	188	2047203.193368
37	2391	189	2046603.193368
37	2399	190	2046003.193368
37	2407	191	2045403.193368
37	2439	192	2044803.277404
37	2447	193	2044203.277404
37	2455	194	2043603.277404
37	2463	195	2043003.277404
37	2471	196	2042403.277404
37	2500	197	2041803.36144
37	2508	198	2041203.36144
37	2516	199	2040603.36144
37	2524	200	2040003.36144
37	2532	201	2039403.36144
37	2564	202	2038803.445476
37	2572	203	2038203.445476
37	2580	204	2037603.445476
37	2588	205	2037003.445476
37	2596	206	2036403.445476
37	2628	207	2035803.529512
37	2636	208	2035203.529512
37	2644	209	2034603.529512
37	2652	210	2034003.529512
37	2660	211	2033403.529512
37	2692	212	2032803.613548
37	2700	213	2032203.613548
37	2708	214	2031603.613548
37	2716	215	2031003.613548
37	2724	216	2030403.613548
37	2756	217	2029803.697584
37	2764	218	2029203.697584
37	2772	219	2028603.697584
37	2780	220	2028003.697584
37	2788	221	2027403.697584
37	2820	222	2026803.78162
37	2828	223	2026203.78162
37	2836	224	2025603.78162
37	2844	225	2025003.78162
37	2852	226	2024403.78162
37	2884	227	2023803.865656
37	2892	228	2023203.865656
37	2900	229	2022603.865656
37	2908	230	2022003.865656
37	2916	231	2021403.865656
37	2948	232	2020803.949692
37	2956	233	2020203.949692
37	2964	234	2019603.949692
37	2972	235	2019003.949692
37	2980	236	2018403.949692
37	3012	237	2017804.033728
37	3020	238	2017204.033728
37	3028	239	2016604.033728
37	3036	240	2016004.033728
37	3044	241	2015404.033728
37	3076	242	2014804.117764
37	3084	243	2014204.117764
37	3092	244	2013604.117764
37	3100	245	2013004.117764
37	3108	246	2012404.117764
37	3140	247	2011804.2018
37	3148	248	2011204.2018
37	3156	249	2010604.2018
37	3164	250	2010004.2018
37	3172	251	2009404.2018
37	3204	252	2008804.285836
37	3212	253	2008204.285836
37	3220	254	2007604.285836
37	3228	255	2007004.285836
37	3236	256	2006404.285836
37	3268	257	2005804.369872
37	3276	258	2005204.369872
37	3284	259	2004604.369872
37	3292	260	2004004.369872
37	3300	261	2003404.369872
37	3332	262	2002804.453908
37	3340	263	2002204.453908
37	3348	264	2001604.453908
37	3356	265	2001004.453908
37	3364	266	2000404.453908
37	3396	267	1999804.537944
37	3404	268	1999204.537944
37	3412	269	1998604.537944
37	3420	270	1998004.537944
37	3428	271	1997404.537944
37	3460	272	1996804.62198
37	3468	273	1996204.62198
37	3476	274	1995604.62198
37	3484	275	1995004.62198
37	3492	276	1994404.62198
37	3524	277	1993804.706016
37	3532	278	1993204.706016
37	3540	279	1992604.706016
37	3548	280	1992004.706016
37	3556	281	1991404.706016
37	3588	282	1990804.790052
37	3596	283	1990204.790052
37	3604	284	1989604.790052
37	3612	285	1989004.790052
37	3620	286	1988404.790052
37	3649	287	1987804.874088
37	3657	288	1987204.874088
37	3665	289	1986604.874088
37	3673	290	1986004.874088
37	3681	291	1985404.874088
37	3713	292	1984804.958124
37	3721	293	1984204.958124
37	3729	294	1983604.958124
37	3737	295	1983004.958124
37	3745	296	1982404.958124
37	3774	297	1981805.04216
37	3782	298	1981205.04216
37	3790	299	1980605.04216
37	3798	300	1980005.04216
37	3806	301	1979405.04216
37	3838	302	1978805.126196
37	3846	303	1978205.126196
37	3854	304	1977605.126196
37	3862	305	1977005.126196
37	3870	306	1976405.126196
37	3902	307	1975805.210232
37	3910	308	1975205.210232
37	3918	309	1974605.210232
37	3926	310	1974005.210232
37	3934	311	1973405.210232
37	3966	312	1972805.294268
37	3974	313	1972205.294268
37	3982	314	1971605.294268
37	3990	315	1971005.294268
37	3998	316	1970405.294268
37	4030	317	1969805.378304
37	4038	318	1969205.378304
37	4046	319	1968605.378304
37	4054	320	1968005.378304
37	4062	321	1967405.378304
37	4094	322	1966805.46234
37	4102	323	1966205.46234
37	4110	324	1965605.46234
37	4118	325	1965005.46234
37	4126	326	1964405.46234
37	4158	327	1963805.546376
37	4166	328	1963205.546376
37	4174	329	1962605.546376
37	4182	330	1962005.546376
37	4190	331	1961405.546376
37	4222	332	1960805.630412
37	4230	333	1960205.630412
37	4238	334	1959605.630412
37	4246	335	1959005.630412
37	4254	336	1958405.630412
37	4283	337	1957805.714448
37	4291	338	1957205.714448
37	4299	339	1956605.714448
37	4307	340	1956005.714448
37	4315	341	1955405.714448
37	4347	342	1954805.798484
37	4355	343	1954205.798484
37	4363	344	1953605.798484
37	4371	345	1953005.798484
37	4379	346	1952405.798484
37	4411	347	1951805.88252
37	4419	348	1951205.88252
37	4427	349	1950605.88252
37	4435	350	1950005.88252
37	4443	351	1949405.88252
37	4475	352	1948805.966556
37	4483	353	1948205.966556
37	4491	354	1947605.966556
37	4499	355	1947005.966556
37	4507	356	1946405.966556
37	4539	357	1945806.050592
37	4547	358	1945206.050592
37	4555	359	1944606.050592
37	4563	360	1944006.050592
37	4571	361	1943406.050592
37	4603	362	1942806.134628
37	4611	363	1942206.134628
37	4619	364	1941606.134628
37	4627	365	1941006.134628
37	4635	366	1940406.134628
37	4667	367	1939806.218664
37	4675	368	1939206.218664
37	4683	369	1938606.218664
37	4691	370	1938006.218664
37	4699	371	1937406.218664
37	4731	372	1936806.3027
37	4739	373	1936206.3027
37	4747	374	1935606.3027
37	4755	375	1935006.3027
37	4763	376	1934406.3027
37	4795	377	1933806.386736
37	4803	378	1933206.386736
37	4811	379	1932606.386736
37	4819	380	1932006.386736
37	4827	381	1931406.386736
37	4859	382	1930806.470772
37	4867	383	1930206.470772
37	4875	384	1929606.470772
37	4883	385	1929006.470772
37	4891	386	1928406.470772
37	4923	387	1927806.554808
37	4931	388	1927206.554808
37	4939	389	1926606.554808
37	4947	390	1926006.554808
37	4955	391	1925406.554808
37	4987	392	1924806.638844
37	4995	393	1924206.638844
37	5003	394	1923606.638844
37	5011	395	1923006.638844
37	5019	396	1922406.638844
37	5051	397	1921806.72288
37	5059	398	1921206.72288
37	5067	399	1920606.72288
37	5075	400	1920006.72288
37	5083	401	1919406.72288
37	5115	402	1918806.806916
37	5123	403	1918206.806916
37	5131	404	1917606.806916
37	5139	405	1917006.806916
37	5147	406	1916406.806916
37	5179	407	1915806.890952
37	5187	408	1915206.890952
37	5195	409	1914606.890952
37	5203	410	1914006.890952
37	5211	411	1913406.890952
37	5243	412	1912806.974988
37	5251	413	1912206.974988
37	5259	414	1911606.974988
37	5267	415	1911006.974988
37	5275	416	1910406.974988
37	5307	417	1909807.059024
37	5315	418	1909207.059024
37	5323	419	1908607.059024
37	5331	420	1908007.059024
37	5339	421	1907407.059024
37	5371	422	1906807.14306
37	5379	423	1906207.14306
37	5387	424	1905607.14306
37	5395	425	1905007.14306
37	5403	426	1904407.14306
37	5432	427	1903807.227096
37	5440	428	1903207.227096
37	5448	429	1902607.227096
37	5456	430	1902007.227096
37	5464	431	1901407.227096
37	5493	432	1900807.311132
37	5501	433	1900207.311132
37	5509	434	1899607.311132
37	5517	435	1899007.311132
37	5525	436	1898407.311132
37	5557	437	1897807.395168
37	5565	438	1897207.395168
37	5573	439	1896607.395168
37	5581	440	1896007.395168
37	5589	441	1895407.395168
37	5621	442	1894807.479204
37	5629	443	1894207.479204
37	5637	444	1893607.479204
37	5645	445	1893007.479204
37	5653	446	1892407.479204
37	5685	447	1891807.56324
37	5693	448	1891207.56324
37	5701	449	1890607.56324
37	5709	450	1890007.56324
37	5717	451	1889407.56324
37	5749	452	1888807.647276
37	5757	453	1888207.647276
37	5765	454	1887607.647276
37	5773	455	1887007.647276
37	5781	456	1886407.647276
37	5813	457	1885807.731312
37	5821	458	1885207.731312
37	5829	459	1884607.731312
37	5837	460	1884007.731312
37	5845	461	1883407.731312
37	5877	462	1882807.815348
37	5885	463	1882207.815348
37	5893	464	1881607.815348
37	5901	465	1881007.815348
37	5909	466	1880407.815348
37	5941	467	1879807.899384
37	5949	468	1879207.899384
37	5957	469	1878607.899384
37	5965	470	1878007.899384
37	5973	471	1877407.899384
37	6005	472	1876807.98342
37	6013	473	1876207.98342
37	6021	474	1875607.98342
37	6029	475	1875007.98342
37	6037	476	1874407.98342
37	6069	477	1873808.067456
37	6077	478	1873208.067456
37	6085	479	1872608.067456
37	6093	480	1872008.067456
37	6101	481	1871408.067456
37	6133	482	1870808.151492
37	6141	483	1870208.151492
37	6149	484	1869608.151492
37	6157	485	1869008.151492
37	6165	486	1868408.151492
37	6197	487	1867808.235528
37	6205	488	1867208.235528
37	6213	489	1866608.235528
37	6221	490	1866008.235528
37	6229	491	1865408.235528
37	6261	492	1864808.319564
37	6269	493	1864208.319564
37	6277	494	1863608.319564
37	6285	495	1863008.319564
37	6293	496	1862408.319564
37	6325	497	1861808.4036
37	6333	498	1861208.4036
37	6341	499	1860608.4036
37	6349	500	1860008.4036
37	6357	501	1859408.4036
37	6389	502	1858808.487636
37	6397	503	1858208.487636
37	6405	504	1857608.487636
37	6413	505	1857008.487636
37	6421	506	1856408.487636
37	6453	507	1855808.571672
37	6461	508	1855208.571672
37	6469	509	1854608.571672
37	6477	510	1854008.571672
37	6485	511	1853408.571672
37	6514	512	1852808.655708
37	6522	513	1852208.655708
37	6530	514	1851608.655708
37	6538	515	1851008.655708
37	6546	516	1850408.655708