version 2
run TwoNodes-0-20160418-14:58:18-12242
attr configname TwoNodes
attr datetime 20160418-14:58:18
attr experiment TwoNodes
attr inifile omnetpp.ini
attr iterationvars $0=0
attr iterationvars2 "$0=0, $repetition=0"
attr measurement $0=0
attr network P2P_Wireless_Wifi
attr processid 12242
attr repetition 0
attr replication #0
attr resultdir results
attr runnumber 0
attr seedset 0

vector 2  P2P_Wireless_Wifi.node[0].batteryStats  capacity  ETV
attr unit  mW-s
vector 9  P2P_Wireless_Wifi.node[1].batteryStats  capacity  ETV
attr unit  mW-s
2	0	0	2160000
2	0	0	2160000
2	13	1	2159400
2	165	2	2158800.314712
2	173	3	2158200.314712
2	181	4	2157600.314712
2	189	5	2157000.314712
2	197	6	2156400.314712
2	205	7	2155800.314712
2	213	8	2155200.314712
2	221	9	2154600.314712
2	229	10	2154000.314712
2	237	11	2153400.314712
2	392	12	2152800.661008
2	400	13	2152200.661008
2	408	14	2151600.661008
2	416	15	2151000.661008
2	424	16	2150400.661008
2	432	17	2149800.661008
2	440	18	2149200.661008
2	448	19	2148600.661008
2	456	20	2148000.661008
2	464	21	2147400.661008
2	472	22	2146800.661008
2	480	23	2146200.661008
2	488	24	2145600.661008
2	496	25	2145000.661008
2	652	26	2144400.97572
2	660	27	2143800.97572
2	668	28	2143200.97572
2	676	29	2142600.97572
2	835	30	2142001.290432
2	843	31	2141401.290432
2	1002	32	2140801.636728
2	1010	33	2140201.636728
2	1018	34	2139601.636728
2	1177	35	2139001.983024
2	1185	36	2138401.983024
2	1193	37	2137801.983024
2	1201	38	2137201.983024
2	1209	39	2136601.983024
2	1217	40	2136001.983024
2	1225	41	2135401.983024
2	1233	42	2134801.983024
2	1241	43	2134201.983024
2	1249	44	2133601.983024
2	1408	45	2133002.297736
2	1416	46	2132402.297736
2	1424	47	2131802.297736
2	1432	48	2131202.297736
2	1440	49	2130602.297736
2	1448	50	2130002.297736
2	1456	51	2129402.297736
2	1464	52	2128802.297736
2	1472	53	2128202.297736
2	1480	54	2127602.297736
2	1488	55	2127002.297736
2	1496	56	2126402.297736
2	1504	57	2125802.297736
2	1512	58	2125202.297736
2	1520	59	2124602.297736
2	1528	60	2124002.297736
2	1536	61	2123402.297736
2	1544	62	2122802.297736
2	1552	63	2122202.297736
2	1711	64	2121602.644032
2	1871	65	2121002.958744
2	1879	66	2120402.958744
2	1887	67	2119802.958744
2	1895	68	2119202.958744
2	1903	69	2118602.958744
2	1911	70	2118002.958744
2	1919	71	2117402.958744
2	1927	72	2116802.958744
2	1935	73	2116202.958744
2	1943	74	2115602.958744
2	1951	75	2115002.958744
2	1959	76	2114402.958744
2	1967	77	2113802.958744
2	1975	78	2113202.958744
2	1983	79	2112602.958744
2	1991	80	2112002.958744
2	1999	81	2111402.958744
2	2155	82	2110803.30504
2	2163	83	2110203.30504
2	2171	84	2109603.30504
2	2179	85	2109003.30504
2	2187	86	2108403.30504
2	2195	87	2107803.30504
2	2203	88	2107203.30504
2	2211	89	2106603.30504
2	2219	90	2106003.30504
2	2379	91	2105403.619752
2	2387	92	2104803.619752
2	2547	93	2104203.966048
2	2555	94	2103603.966048
2	2563	95	2103003.966048
2	2571	96	2102403.966048
2	2579	97	2101803.966048
2	2587	98	2101203.966048
2	2743	99	2100604.28076
9	0	0	2160000
9	0	0	2160000
9	14	1	2159400
9	166	2	2158800.346296
9	174	3	2158200.346296
9	182	4	2157600.346296
9	190	5	2157000.346296
9	198	6	2156400.346296
9	206	7	2155800.346296
9	214	8	2155200.346296
9	222	9	2154600.346296
9	230	10	2154000.346296
9	238	11	2153400.346296
9	393	12	2152800.661008
9	401	13	2152200.661008
9	409	14	2151600.661008
9	417	15	2151000.661008
9	425	16	2150400.661008
9	433	17	2149800.661008
9	441	18	2149200.661008
9	449	19	2148600.661008
9	457	20	2148000.661008
9	465	21	2147400.661008
9	473	22	2146800.661008
9	481	23	2146200.661008
9	489	24	2145600.661008
9	497	25	2145000.661008
9	653	26	2144401.007304
9	661	27	2143801.007304
9	669	28	2143201.007304
9	677	29	2142601.007304
9	836	30	2142001.3536
9	844	31	2141401.3536
9	1003	32	2140801.668312
9	1011	33	2140201.668312
9	1019	34	2139601.668312
9	1178	35	2139001.983024
9	1186	36	2138401.983024
9	1194	37	2137801.983024
9	1202	38	2137201.983024
9	1210	39	2136601.983024
9	1218	40	2136001.983024
9	1226	41	2135401.983024
9	1234	42	2134801.983024
9	1242	43	2134201.983024
9	1250	44	2133601.983024
9	1409	45	2133002.32932
9	1417	46	2132402.32932
9	1425	47	2131802.32932
9	1433	48	2131202.32932
9	1441	49	2130602.32932
9	1449	50	2130002.32932
9	1457	51	2129402.32932
9	1465	52	2128802.32932
9	1473	53	2128202.32932
9	1481	54	2127602.32932
9	1489	55	2127002.32932
9	1497	56	2126402.32932
9	1505	57	2125802.32932
9	1513	58	2125202.32932
9	1521	59	2124602.32932
9	1529	60	2124002.32932
9	1537	61	2123402.32932
9	1545	62	2122802.32932
9	1553	63	2122202.32932
9	1712	64	2121602.644032
9	1872	65	2121002.990328
9	1880	66	2120402.990328
9	1888	67	2119802.990328
9	1896	68	2119202.990328
9	1904	69	2118602.990328
9	1912	70	2118002.990328
9	1920	71	2117402.990328
9	1928	72	2116802.990328
9	1936	73	2116202.990328
9	1944	74	2115602.990328
9	1952	75	2115002.990328
9	1960	76	2114402.990328
9	1968	77	2113802.990328
9	1976	78	2113202.990328
9	1984	79	2112602.990328
9	1992	80	2112002.990328
9	2000	81	2111402.990328
9	2156	82	2110803.30504
9	2164	83	2110203.30504
9	2172	84	2109603.30504
9	2180	85	2109003.30504
9	2188	86	2108403.30504
9	2196	87	2107803.30504
9	2204	88	2107203.30504
9	2212	89	2106603.30504
9	2220	90	2106003.30504
9	2380	91	2105403.651336
9	2388	92	2104803.651336
9	2548	93	2104203.966048
9	2556	94	2103603.966048
9	2564	95	2103003.966048
9	2572	96	2102403.966048
9	2580	97	2101803.966048
9	2588	98	2101203.966048
9	2744	99	2100604.312344
