version 2
run TwoNodes-0-20160510-22:57:07-32319
attr configname TwoNodes
attr datetime 20160510-22:57:07
attr experiment TwoNodes
attr inifile omnetpp.ini
attr iterationvars $0=0
attr iterationvars2 "$0=0, $repetition=0"
attr measurement $0=0
attr network P2P_Wireless_Wifi
attr processid 32319
attr repetition 0
attr replication #0
attr resultdir results
attr runnumber 0
attr seedset 0

vector 2  P2P_Wireless_Wifi.node[0].batteryStats  capacity  ETV
attr unit  mW-s
vector 9  P2P_Wireless_Wifi.node[1].batteryStats  capacity  ETV
attr unit  mW-s
2	0	0	2160000
2	0	0	2160000
2	13	1	2159400
2	21	2	2158800
2	29	3	2158200
2	37	4	2157600
2	45	5	2157000
2	53	6	2156400
2	61	7	2155800
2	69	8	2155200
2	228	9	2154600.314712
2	236	10	2154000.314712
2	244	11	2153400.314712
2	397	12	2152800.661008
2	405	13	2152200.661008
2	413	14	2151600.661008
2	421	15	2151000.661008
2	429	16	2150400.661008
2	437	17	2149800.661008
2	445	18	2149200.661008
2	453	19	2148600.661008
2	461	20	2148000.661008
2	469	21	2147400.661008
2	477	22	2146800.661008
2	485	23	2146200.661008
2	493	24	2145600.661008
2	501	25	2145000.661008
2	509	26	2144400.661008
2	517	27	2143800.661008
2	525	28	2143200.661008
2	533	29	2142600.661008
2	541	30	2142000.661008
2	700	31	2141401.007304
2	708	32	2140801.007304
2	867	33	2140201.322016
2	1027	34	2139601.668312
2	1035	35	2139001.668312
2	1191	36	2138401.983024
2	1199	37	2137801.983024
2	1207	38	2137201.983024
2	1215	39	2136601.983024
2	1223	40	2136001.983024
2	1231	41	2135401.983024
2	1390	42	2134802.32932
2	1398	43	2134202.32932
2	1558	44	2133602.644032
2	1566	45	2133002.644032
2	1574	46	2132402.644032
2	1582	47	2131802.644032
2	1590	48	2131202.644032
2	1598	49	2130602.644032
2	1606	50	2130002.644032
2	1614	51	2129402.644032
2	1622	52	2128802.644032
2	1781	53	2128202.958744
2	1789	54	2127602.958744
2	1797	55	2127002.958744
2	1805	56	2126402.958744
2	1813	57	2125802.958744
2	1821	58	2125202.958744
2	1977	59	2124603.30504
2	1985	60	2124003.30504
2	1993	61	2123403.30504
2	2001	62	2122803.30504
2	2009	63	2122203.30504
2	2017	64	2121603.30504
2	2025	65	2121003.30504
2	2033	66	2120403.30504
2	2041	67	2119803.30504
2	2049	68	2119203.30504
2	2057	69	2118603.30504
2	2065	70	2118003.30504
2	2073	71	2117403.30504
2	2081	72	2116803.30504
2	2089	73	2116203.30504
2	2097	74	2115603.30504
2	2105	75	2115003.30504
2	2113	76	2114403.30504
2	2121	77	2113803.30504
2	2129	78	2113203.30504
2	2137	79	2112603.30504
2	2145	80	2112003.30504
2	2153	81	2111403.30504
2	2161	82	2110803.30504
2	2320	83	2110203.619752
2	2328	84	2109603.619752
2	2487	85	2109003.966048
2	2495	86	2108403.966048
2	2503	87	2107803.966048
2	2511	88	2107203.966048
2	2519	89	2106603.966048
2	2527	90	2106003.966048
2	2535	91	2105403.966048
2	2695	92	2104804.312344
2	2703	93	2104204.312344
2	2711	94	2103604.312344
2	2719	95	2103004.312344
2	2727	96	2102404.312344
2	2735	97	2101804.312344
2	2743	98	2101204.312344
2	2751	99	2100604.312344
9	0	0	2160000
9	0	0	2160000
9	14	1	2159400
9	22	2	2158800
9	30	3	2158200
9	38	4	2157600
9	46	5	2157000
9	54	6	2156400
9	62	7	2155800
9	70	8	2155200
9	229	9	2154600.346296
9	237	10	2154000.346296
9	245	11	2153400.346296
9	398	12	2152800.661008
9	406	13	2152200.661008
9	414	14	2151600.661008
9	422	15	2151000.661008
9	430	16	2150400.661008
9	438	17	2149800.661008
9	446	18	2149200.661008
9	454	19	2148600.661008
9	462	20	2148000.661008
9	470	21	2147400.661008
9	478	22	2146800.661008
9	486	23	2146200.661008
9	494	24	2145600.661008
9	502	25	2145000.661008
9	510	26	2144400.661008
9	518	27	2143800.661008
9	526	28	2143200.661008
9	534	29	2142600.661008
9	542	30	2142000.661008
9	701	31	2141400.97572
9	709	32	2140800.97572
9	868	33	2140201.322016
9	1028	34	2139601.636728
9	1036	35	2139001.636728
9	1192	36	2138401.983024
9	1200	37	2137801.983024
9	1208	38	2137201.983024
9	1216	39	2136601.983024
9	1224	40	2136001.983024
9	1232	41	2135401.983024
9	1391	42	2134802.297736
9	1399	43	2134202.297736
9	1559	44	2133602.644032
9	1567	45	2133002.644032
9	1575	46	2132402.644032
9	1583	47	2131802.644032
9	1591	48	2131202.644032
9	1599	49	2130602.644032
9	1607	50	2130002.644032
9	1615	51	2129402.644032
9	1623	52	2128802.644032
9	1782	53	2128202.990328
9	1790	54	2127602.990328
9	1798	55	2127002.990328
9	1806	56	2126402.990328
9	1814	57	2125802.990328
9	1822	58	2125202.990328
9	1978	59	2124603.30504
9	1986	60	2124003.30504
9	1994	61	2123403.30504
9	2002	62	2122803.30504
9	2010	63	2122203.30504
9	2018	64	2121603.30504
9	2026	65	2121003.30504
9	2034	66	2120403.30504
9	2042	67	2119803.30504
9	2050	68	2119203.30504
9	2058	69	2118603.30504
9	2066	70	2118003.30504
9	2074	71	2117403.30504
9	2082	72	2116803.30504
9	2090	73	2116203.30504
9	2098	74	2115603.30504
9	2106	75	2115003.30504
9	2114	76	2114403.30504
9	2122	77	2113803.30504
9	2130	78	2113203.30504
9	2138	79	2112603.30504
9	2146	80	2112003.30504
9	2154	81	2111403.30504
9	2162	82	2110803.30504
9	2321	83	2110203.651336
9	2329	84	2109603.651336
9	2488	85	2109003.966048
9	2496	86	2108403.966048
9	2504	87	2107803.966048
9	2512	88	2107203.966048
9	2520	89	2106603.966048
9	2528	90	2106003.966048
9	2536	91	2105403.966048
9	2696	92	2104804.28076
9	2704	93	2104204.28076
9	2712	94	2103604.28076
9	2720	95	2103004.28076
9	2728	96	2102404.28076
9	2736	97	2101804.28076
9	2744	98	2101204.28076
9	2752	99	2100604.28076
