version 2
run TwoNodes-4-20160309-14:37:44-13743
attr configname TwoNodes
attr datetime 20160309-14:37:44
attr experiment TwoNodes
attr inifile omnetpp.ini
attr iterationvars $0=1
attr iterationvars2 "$0=1, $repetition=1"
attr measurement $0=1
attr network P2P_Wireless_Wifi
attr processid 13743
attr repetition 1
attr replication #1
attr resultdir results
attr runnumber 4
attr seedset 1

vector 58  P2P_Wireless_Wifi.node[0].batteryStats  capacity  ETV
attr unit  mW-s
vector 65  P2P_Wireless_Wifi.node[1].batteryStats  capacity  ETV
attr unit  mW-s
58	0	0	2160000
58	0	0	2160000
58	13	1	2159400
58	21	2	2158800
58	29	3	2158200
58	37	4	2157600
58	45	5	2157000
58	53	6	2156400
58	61	7	2155800
58	69	8	2155200
58	77	9	2154600
58	85	10	2154000
58	93	11	2153400
58	249	12	2152800.346296
58	257	13	2152200.346296
58	265	14	2151600.346296
58	273	15	2151000.346296
58	281	16	2150400.346296
58	289	17	2149800.346296
58	297	18	2149200.346296
58	305	19	2148600.346296
58	313	20	2148000.346296
58	469	21	2147400.661008
58	477	22	2146800.661008
58	485	23	2146200.661008
58	493	24	2145600.661008
58	501	25	2145000.661008
58	509	26	2144400.661008
58	517	27	2143800.661008
58	525	28	2143200.661008
58	533	29	2142600.661008
58	541	30	2142000.661008
58	549	31	2141400.661008
58	557	32	2140800.661008
58	716	33	2140201.007304
58	724	34	2139601.007304
58	880	35	2139001.3536
58	888	36	2138401.3536
58	896	37	2137801.3536
58	904	38	2137201.3536
58	1063	39	2136601.699896
58	1071	40	2136001.699896
58	1079	41	2135401.699896
58	1087	42	2134801.699896
58	1246	43	2134202.014608
58	1254	44	2133602.014608
58	1262	45	2133002.014608
58	1270	46	2132402.014608
58	1278	47	2131802.014608
58	1286	48	2131202.014608
58	1294	49	2130602.014608
58	1302	50	2130002.014608
58	1310	51	2129402.014608
58	1318	52	2128802.014608
58	1326	53	2128202.014608
58	1482	54	2127602.32932
58	1490	55	2127002.32932
58	1498	56	2126402.32932
58	1506	57	2125802.32932
58	1665	58	2125202.644032
58	1673	59	2124602.644032
58	1681	60	2124002.644032
58	1689	61	2123402.644032
58	1697	62	2122802.644032
58	1705	63	2122202.644032
58	1713	64	2121602.644032
58	1872	65	2121002.958744
58	1880	66	2120402.958744
58	1888	67	2119802.958744
58	2044	68	2119203.30504
58	2052	69	2118603.30504
58	2060	70	2118003.30504
58	2068	71	2117403.30504
58	2076	72	2116803.30504
58	2084	73	2116203.30504
58	2092	74	2115603.30504
58	2100	75	2115003.30504
58	2108	76	2114403.30504
58	2116	77	2113803.30504
58	2124	78	2113203.30504
58	2132	79	2112603.30504
58	2140	80	2112003.30504
58	2148	81	2111403.30504
58	2304	82	2110803.651336
58	2312	83	2110203.651336
58	2471	84	2109603.997632
58	2479	85	2109003.997632
58	2487	86	2108403.997632
58	2495	87	2107803.997632
58	2503	88	2107203.997632
58	2511	89	2106603.997632
58	2519	90	2106003.997632
58	2527	91	2105403.997632
58	2535	92	2104803.997632
58	2543	93	2104203.997632
58	2702	94	2103604.312344
58	2710	95	2103004.312344
58	2718	96	2102404.312344
58	2726	97	2101804.312344
58	2734	98	2101204.312344
58	2742	99	2100604.312344
58	2750	100	2100004.312344
58	2758	101	2099404.312344
58	2766	102	2098804.312344
58	2774	103	2098204.312344
58	2782	104	2097604.312344
58	2790	105	2097004.312344
58	2798	106	2096404.312344
58	2806	107	2095804.312344
58	2814	108	2095204.312344
58	2973	109	2094604.627056
58	2981	110	2094004.627056
58	2989	111	2093404.627056
58	2997	112	2092804.627056
58	3156	113	2092204.973352
58	3164	114	2091604.973352
58	3172	115	2091004.973352
58	3180	116	2090404.973352
58	3188	117	2089804.973352
58	3196	118	2089204.973352
58	3204	119	2088604.973352
58	3212	120	2088004.973352
58	3220	121	2087404.973352
58	3228	122	2086804.973352
58	3236	123	2086204.973352
58	3244	124	2085604.973352
58	3403	125	2085005.288064
58	3559	126	2084405.63436
58	3567	127	2083805.63436
58	3575	128	2083205.63436
58	3583	129	2082605.63436
58	3591	130	2082005.63436
58	3599	131	2081405.63436
58	3607	132	2080805.63436
58	3615	133	2080205.63436
58	3623	134	2079605.63436
58	3631	135	2079005.63436
58	3639	136	2078405.63436
58	3647	137	2077805.63436
58	3655	138	2077205.63436
58	3663	139	2076605.63436
58	3671	140	2076005.63436
58	3679	141	2075405.63436
58	3687	142	2074805.63436
58	3695	143	2074205.63436
58	3703	144	2073605.63436
58	3711	145	2073005.63436
58	3871	146	2072405.949072
58	3879	147	2071805.949072
58	4035	148	2071206.263784
58	4195	149	2070606.61008
58	4203	150	2070006.61008
58	4211	151	2069406.61008
58	4219	152	2068806.61008
58	4227	153	2068206.61008
58	4235	154	2067606.61008
58	4243	155	2067006.61008
58	4251	156	2066406.61008
58	4259	157	2065806.61008
58	4267	158	2065206.61008
58	4275	159	2064606.61008
58	4283	160	2064006.61008
58	4291	161	2063406.61008
58	4299	162	2062806.61008
58	4307	163	2062206.61008
58	4315	164	2061606.61008
58	4323	165	2061006.61008
58	4331	166	2060406.61008
58	4339	167	2059806.61008
58	4498	168	2059206.956376
58	4506	169	2058606.956376
58	4514	170	2058006.956376
58	4522	171	2057406.956376
58	4530	172	2056806.956376
58	4538	173	2056206.956376
58	4546	174	2055606.956376
58	4705	175	2055007.271088
58	4713	176	2054407.271088
58	4721	177	2053807.271088
58	4729	178	2053207.271088
58	4737	179	2052607.271088
58	4745	180	2052007.271088
58	4753	181	2051407.271088
58	4761	182	2050807.271088
58	4769	183	2050207.271088
58	4777	184	2049607.271088
58	4785	185	2049007.271088
58	4793	186	2048407.271088
58	4801	187	2047807.271088
58	4809	188	2047207.271088
58	4817	189	2046607.271088
58	4825	190	2046007.271088
58	4833	191	2045407.271088
58	4841	192	2044807.271088
58	4849	193	2044207.271088
58	5005	194	2043607.617384
58	5013	195	2043007.617384
58	5021	196	2042407.617384
58	5029	197	2041807.617384
58	5037	198	2041207.617384
58	5045	199	2040607.617384
58	5053	200	2040007.617384
58	5061	201	2039407.617384
58	5069	202	2038807.617384
58	5077	203	2038207.617384
58	5085	204	2037607.617384
58	5396	205	2037008.278392
58	5404	206	2036408.278392
58	5412	207	2035808.278392
58	5420	208	2035208.278392
58	5428	209	2034608.278392
58	5436	210	2034008.278392
58	5444	211	2033408.278392
58	5452	212	2032808.278392
58	5612	213	2032208.593104
58	5620	214	2031608.593104
58	5779	215	2031008.907816
58	5787	216	2030408.907816
58	5795	217	2029808.907816
58	5803	218	2029208.907816
58	5962	219	2028609.222528
58	5970	220	2028009.222528
58	5978	221	2027409.222528
58	5986	222	2026809.222528
58	5994	223	2026209.222528
58	6002	224	2025609.222528
58	6010	225	2025009.222528
58	6018	226	2024409.222528
58	6026	227	2023809.222528
58	6034	228	2023209.222528
58	6194	229	2022609.568824
58	6202	230	2022009.568824
58	6210	231	2021409.568824
58	6218	232	2020809.568824
58	6226	233	2020209.568824
58	6234	234	2019609.568824
58	6242	235	2019009.568824
58	6250	236	2018409.568824
58	6258	237	2017809.568824
58	6266	238	2017209.568824
58	6274	239	2016609.568824
58	6586	240	2016010.261416
58	6745	241	2015410.576128
58	6753	242	2014810.576128
58	6761	243	2014210.576128
58	6769	244	2013610.576128
58	6925	245	2013010.922424
58	6933	246	2012410.922424
58	6941	247	2011810.922424
58	6949	248	2011210.922424
58	6957	249	2010610.922424
58	6965	250	2010010.922424
58	6973	251	2009410.922424
58	6981	252	2008810.922424
58	6989	253	2008210.922424
58	6997	254	2007610.922424
58	7005	255	2007010.922424
58	7013	256	2006410.922424
58	7021	257	2005810.922424
58	7029	258	2005210.922424
58	7037	259	2004610.922424
58	7045	260	2004010.922424
58	7053	261	2003410.922424
58	7061	262	2002810.922424
58	7069	263	2002210.922424
58	7229	264	2001611.26872
58	7237	265	2001011.26872
58	7245	266	2000411.26872
58	7253	267	1999811.26872
58	7261	268	1999211.26872
58	7269	269	1998611.26872
58	7277	270	1998011.26872
58	7436	271	1997411.583432
58	7444	272	1996811.583432
58	7452	273	1996211.583432
58	7460	274	1995611.583432
58	7468	275	1995011.583432
58	7476	276	1994411.583432
58	7484	277	1993811.583432
58	7492	278	1993211.583432
58	7500	279	1992611.583432
58	7659	280	1992011.929728
58	7667	281	1991411.929728
58	7675	282	1990811.929728
58	7683	283	1990211.929728
58	7691	284	1989611.929728
58	7699	285	1989011.929728
58	7707	286	1988411.929728
58	7715	287	1987811.929728
58	7723	288	1987211.929728
58	7882	289	1986612.276024
58	7890	290	1986012.276024
58	7898	291	1985412.276024
58	8057	292	1984812.62232
58	8065	293	1984212.62232
58	8073	294	1983612.62232
58	8081	295	1983012.62232
58	8089	296	1982412.62232
58	8097	297	1981812.62232
58	8257	298	1981212.937032
58	8265	299	1980612.937032
58	8273	300	1980012.937032
58	8281	301	1979412.937032
58	8289	302	1978812.937032
58	8297	303	1978212.937032
58	8305	304	1977612.937032
58	8313	305	1977012.937032
58	8321	306	1976412.937032
58	8329	307	1975812.937032
58	8337	308	1975212.937032
58	8345	309	1974612.937032
58	8353	310	1974012.937032
58	8361	311	1973412.937032
58	8369	312	1972812.937032
58	8377	313	1972212.937032
58	8385	314	1971612.937032
58	8393	315	1971012.937032
58	8401	316	1970412.937032
58	8409	317	1969812.937032
58	8417	318	1969212.937032
58	8425	319	1968612.937032
58	8584	320	1968013.251744
58	8744	321	1967413.59804
58	8752	322	1966813.59804
58	8911	323	1966213.912752
58	8919	324	1965613.912752
58	8927	325	1965013.912752
58	8935	326	1964413.912752
58	8943	327	1963813.912752
58	8951	328	1963213.912752
58	8959	329	1962613.912752
58	8967	330	1962013.912752
58	8975	331	1961413.912752
58	8983	332	1960813.912752
58	8991	333	1960213.912752
58	8999	334	1959613.912752
58	9007	335	1959013.912752
58	9015	336	1958413.912752
58	9023	337	1957813.912752
58	9183	338	1957214.259048
58	9191	339	1956614.259048
58	9199	340	1956014.259048
58	9207	341	1955414.259048
58	9215	342	1954814.259048
58	9223	343	1954214.259048
58	9382	344	1953614.605344
58	9390	345	1953014.605344
58	9398	346	1952414.605344
58	9406	347	1951814.605344
58	9562	348	1951214.920056
58	9570	349	1950614.920056
58	9729	350	1950015.234768
58	9737	351	1949415.234768
58	9745	352	1948815.234768
58	9753	353	1948215.234768
58	9761	354	1947615.234768
58	9769	355	1947015.234768
58	9777	356	1946415.234768
58	9785	357	1945815.234768
58	9944	358	1945215.581064
58	9952	359	1944615.581064
58	9960	360	1944015.581064
58	9968	361	1943415.581064
58	9976	362	1942815.581064
58	9984	363	1942215.581064
58	9992	364	1941615.581064
58	10000	365	1941015.581064
58	10008	366	1940415.581064
58	10016	367	1939815.581064
58	10024	368	1939215.581064
58	10032	369	1938615.581064
58	10040	370	1938015.581064
58	10048	371	1937415.581064
58	10056	372	1936815.581064
58	10064	373	1936215.581064
58	10220	374	1935615.92736
58	10228	375	1935015.92736
58	10236	376	1934415.92736
58	10244	377	1933815.92736
58	10252	378	1933215.92736
58	10559	379	1932616.588368
58	10567	380	1932016.588368
58	10575	381	1931416.588368
58	10583	382	1930816.588368
58	10591	383	1930216.588368
58	10599	384	1929616.588368
58	10607	385	1929016.588368
58	10615	386	1928416.588368
58	10623	387	1927816.588368
58	10631	388	1927216.588368
58	10784	389	1926616.90308
58	10792	390	1926016.90308
58	10800	391	1925416.90308
58	10808	392	1924816.90308
58	10816	393	1924216.90308
58	10824	394	1923616.90308
58	10832	395	1923016.90308
58	10991	396	1922417.217792
58	11147	397	1921817.564088
58	11155	398	1921217.564088
58	11163	399	1920617.564088
58	11171	400	1920017.564088
58	11179	401	1919417.564088
58	11187	402	1918817.564088
58	11195	403	1918217.564088
58	11203	404	1917617.564088
58	11211	405	1917017.564088
58	11219	406	1916417.564088
58	11227	407	1915817.564088
58	11235	408	1915217.564088
58	11243	409	1914617.564088
58	11251	410	1914017.564088
58	11407	411	1913417.8788
58	11415	412	1912817.8788
58	11423	413	1912217.8788
58	11431	414	1911617.8788
58	11439	415	1911017.8788
58	11447	416	1910417.8788
58	11603	417	1909818.193512
58	11759	418	1909218.508224
58	11767	419	1908618.508224
58	11775	420	1908018.508224
58	11783	421	1907418.508224
58	11791	422	1906818.508224
58	11799	423	1906218.508224
58	11807	424	1905618.508224
58	11815	425	1905018.508224
58	11823	426	1904418.508224
58	11982	427	1903818.85452
58	11990	428	1903218.85452
58	11998	429	1902618.85452
58	12006	430	1902018.85452
58	12014	431	1901418.85452
58	12022	432	1900818.85452
58	12030	433	1900218.85452
58	12038	434	1899618.85452
58	12046	435	1899018.85452
58	12054	436	1898418.85452
58	12062	437	1897818.85452
58	12070	438	1897218.85452
58	12078	439	1896618.85452
58	12086	440	1896018.85452
58	12094	441	1895418.85452
58	12102	442	1894818.85452
58	12261	443	1894219.200816
58	12269	444	1893619.200816
58	12277	445	1893019.200816
58	12285	446	1892419.200816
58	12441	447	1891819.515528
58	12449	448	1891219.515528
58	12457	449	1890619.515528
58	12465	450	1890019.515528
58	12473	451	1889419.515528
58	12481	452	1888819.515528
58	12489	453	1888219.515528
58	12497	454	1887619.515528
58	12505	455	1887019.515528
58	12513	456	1886419.515528
58	12521	457	1885819.515528
58	12529	458	1885219.515528
58	12537	459	1884619.515528
58	12545	460	1884019.515528
58	12553	461	1883419.515528
58	12561	462	1882819.515528
58	12569	463	1882219.515528
58	12577	464	1881619.515528
58	12585	465	1881019.515528
58	12737	466	1880419.83024
58	12745	467	1879819.83024
58	12753	468	1879219.83024
58	12761	469	1878619.83024
58	12769	470	1878019.83024
58	12777	471	1877419.83024
58	12936	472	1876820.176536
58	12944	473	1876220.176536
58	12952	474	1875620.176536
58	12960	475	1875020.176536
58	12968	476	1874420.176536
58	13128	477	1873820.491248
58	13136	478	1873220.491248
58	13295	479	1872620.837544
58	13303	480	1872020.837544
58	13311	481	1871420.837544
58	13319	482	1870820.837544
58	13479	483	1870221.18384
58	13487	484	1869621.18384
58	13495	485	1869021.18384
58	13503	486	1868421.18384
58	13511	487	1867821.18384
58	13519	488	1867221.18384
58	13527	489	1866621.18384
58	13686	490	1866021.530136
58	13694	491	1865421.530136
58	13702	492	1864821.530136
58	13710	493	1864221.530136
58	13718	494	1863621.530136
58	13726	495	1863021.530136
58	13734	496	1862421.530136
58	13742	497	1861821.530136
58	13750	498	1861221.530136
58	13758	499	1860621.530136
58	14068	500	1860022.191144
58	14076	501	1859422.191144
58	14084	502	1858822.191144
58	14092	503	1858222.191144
58	14100	504	1857622.191144
58	14108	505	1857022.191144
58	14116	506	1856422.191144
58	14124	507	1855822.191144
58	14132	508	1855222.191144
58	14140	509	1854622.191144
58	14148	510	1854022.191144
58	14156	511	1853422.191144
58	14164	512	1852822.191144
58	14172	513	1852222.191144
58	14180	514	1851622.191144
58	14188	515	1851022.191144
58	14196	516	1850422.191144
58	14204	517	1849822.191144
58	14212	518	1849222.191144
58	14220	519	1848622.191144
58	14228	520	1848022.191144
58	14236	521	1847422.191144
58	14244	522	1846822.191144
58	14252	523	1846222.191144
58	14260	524	1845622.191144
58	14419	525	1845022.505856
58	14579	526	1844422.852152
58	14587	527	1843822.852152
58	14595	528	1843222.852152
58	14603	529	1842622.852152
58	14763	530	1842023.198448
58	14771	531	1841423.198448
58	14779	532	1840823.198448
58	14787	533	1840223.198448
58	14795	534	1839623.198448
58	14803	535	1839023.198448
58	14811	536	1838423.198448
58	14819	537	1837823.198448
58	14827	538	1837223.198448
58	14835	539	1836623.198448
58	14843	540	1836023.198448
58	14851	541	1835423.198448
58	14859	542	1834823.198448
58	15018	543	1834223.544744
58	15178	544	1833623.859456
58	15186	545	1833023.859456
58	15194	546	1832423.859456
58	15202	547	1831823.859456
58	15210	548	1831223.859456
58	15218	549	1830623.859456
58	15226	550	1830023.859456
58	15234	551	1829423.859456
58	15242	552	1828823.859456
58	15250	553	1828223.859456
58	15258	554	1827623.859456
58	15266	555	1827023.859456
58	15274	556	1826423.859456
58	15282	557	1825823.859456
58	15290	558	1825223.859456
58	15298	559	1824623.859456
58	15306	560	1824023.859456
58	15314	561	1823423.859456
58	15322	562	1822823.859456
58	15482	563	1822224.205752
58	15490	564	1821624.205752
58	15498	565	1821024.205752
58	15506	566	1820424.205752
58	15666	567	1819824.520464
58	15674	568	1819224.520464
58	15833	569	1818624.835176
58	15841	570	1818024.835176
58	15849	571	1817424.835176
58	15857	572	1816824.835176
58	15865	573	1816224.835176
58	15873	574	1815624.835176
58	15881	575	1815024.835176
58	15889	576	1814424.835176
58	15897	577	1813824.835176
58	15905	578	1813224.835176
58	15913	579	1812624.835176
58	15921	580	1812024.835176
58	15929	581	1811424.835176
58	15937	582	1810824.835176
58	15945	583	1810224.835176
58	15953	584	1809624.835176
58	16109	585	1809025.181472
58	16117	586	1808425.181472
58	16125	587	1807825.181472
58	16133	588	1807225.181472
58	16141	589	1806625.181472
58	16149	590	1806025.181472
58	16157	591	1805425.181472
58	16165	592	1804825.181472
58	16173	593	1804225.181472
58	16181	594	1803625.181472
58	16189	595	1803025.181472
58	16197	596	1802425.181472
58	16205	597	1801825.181472
58	16213	598	1801225.181472
58	16521	599	1800625.810896
65	0	0	2160000
65	0	0	2160000
65	14	1	2159400
65	22	2	2158800
65	30	3	2158200
65	38	4	2157600
65	46	5	2157000
65	54	6	2156400
65	62	7	2155800
65	70	8	2155200
65	78	9	2154600
65	86	10	2154000
65	94	11	2153400
65	250	12	2152800.314712
65	258	13	2152200.314712
65	266	14	2151600.314712
65	274	15	2151000.314712
65	282	16	2150400.314712
65	290	17	2149800.314712
65	298	18	2149200.314712
65	306	19	2148600.314712
65	314	20	2148000.314712
65	470	21	2147400.661008
65	478	22	2146800.661008
65	486	23	2146200.661008
65	494	24	2145600.661008
65	502	25	2145000.661008
65	510	26	2144400.661008
65	518	27	2143800.661008
65	526	28	2143200.661008
65	534	29	2142600.661008
65	542	30	2142000.661008
65	550	31	2141400.661008
65	558	32	2140800.661008
65	717	33	2140200.97572
65	725	34	2139600.97572
65	881	35	2139001.290432
65	889	36	2138401.290432
65	897	37	2137801.290432
65	905	38	2137201.290432
65	1064	39	2136601.605144
65	1072	40	2136001.605144
65	1080	41	2135401.605144
65	1088	42	2134801.605144
65	1247	43	2134201.95144
65	1255	44	2133601.95144
65	1263	45	2133001.95144
65	1271	46	2132401.95144
65	1279	47	2131801.95144
65	1287	48	2131201.95144
65	1295	49	2130601.95144
65	1303	50	2130001.95144
65	1311	51	2129401.95144
65	1319	52	2128801.95144
65	1327	53	2128201.95144
65	1483	54	2127602.297736
65	1491	55	2127002.297736
65	1499	56	2126402.297736
65	1507	57	2125802.297736
65	1666	58	2125202.644032
65	1674	59	2124602.644032
65	1682	60	2124002.644032
65	1690	61	2123402.644032
65	1698	62	2122802.644032
65	1706	63	2122202.644032
65	1714	64	2121602.644032
65	1873	65	2121002.990328
65	1881	66	2120402.990328
65	1889	67	2119802.990328
65	2045	68	2119203.30504
65	2053	69	2118603.30504
65	2061	70	2118003.30504
65	2069	71	2117403.30504
65	2077	72	2116803.30504
65	2085	73	2116203.30504
65	2093	74	2115603.30504
65	2101	75	2115003.30504
65	2109	76	2114403.30504
65	2117	77	2113803.30504
65	2125	78	2113203.30504
65	2133	79	2112603.30504
65	2141	80	2112003.30504
65	2149	81	2111403.30504
65	2305	82	2110803.619752
65	2313	83	2110203.619752
65	2472	84	2109603.934464
65	2480	85	2109003.934464
65	2488	86	2108403.934464
65	2496	87	2107803.934464
65	2504	88	2107203.934464
65	2512	89	2106603.934464
65	2520	90	2106003.934464
65	2528	91	2105403.934464
65	2536	92	2104803.934464
65	2544	93	2104203.934464
65	2703	94	2103604.28076
65	2711	95	2103004.28076
65	2719	96	2102404.28076
65	2727	97	2101804.28076
65	2735	98	2101204.28076
65	2743	99	2100604.28076
65	2751	100	2100004.28076
65	2759	101	2099404.28076
65	2767	102	2098804.28076
65	2775	103	2098204.28076
65	2783	104	2097604.28076
65	2791	105	2097004.28076
65	2799	106	2096404.28076
65	2807	107	2095804.28076
65	2815	108	2095204.28076
65	2974	109	2094604.627056
65	2982	110	2094004.627056
65	2990	111	2093404.627056
65	2998	112	2092804.627056
65	3157	113	2092204.941768
65	3165	114	2091604.941768
65	3173	115	2091004.941768
65	3181	116	2090404.941768
65	3189	117	2089804.941768
65	3197	118	2089204.941768
65	3205	119	2088604.941768
65	3213	120	2088004.941768
65	3221	121	2087404.941768
65	3229	122	2086804.941768
65	3237	123	2086204.941768
65	3245	124	2085604.941768
65	3404	125	2085005.288064
65	3560	126	2084405.602776
65	3568	127	2083805.602776
65	3576	128	2083205.602776
65	3584	129	2082605.602776
65	3592	130	2082005.602776
65	3600	131	2081405.602776
65	3608	132	2080805.602776
65	3616	133	2080205.602776
65	3624	134	2079605.602776
65	3632	135	2079005.602776
65	3640	136	2078405.602776
65	3648	137	2077805.602776
65	3656	138	2077205.602776
65	3664	139	2076605.602776
65	3672	140	2076005.602776
65	3680	141	2075405.602776
65	3688	142	2074805.602776
65	3696	143	2074205.602776
65	3704	144	2073605.602776
65	3712	145	2073005.602776
65	3872	146	2072405.949072
65	3880	147	2071805.949072
65	4036	148	2071206.295368
65	4196	149	2070606.61008
65	4204	150	2070006.61008
65	4212	151	2069406.61008
65	4220	152	2068806.61008
65	4228	153	2068206.61008
65	4236	154	2067606.61008
65	4244	155	2067006.61008
65	4252	156	2066406.61008
65	4260	157	2065806.61008
65	4268	158	2065206.61008
65	4276	159	2064606.61008
65	4284	160	2064006.61008
65	4292	161	2063406.61008
65	4300	162	2062806.61008
65	4308	163	2062206.61008
65	4316	164	2061606.61008
65	4324	165	2061006.61008
65	4332	166	2060406.61008
65	4340	167	2059806.61008
65	4499	168	2059206.924792
65	4507	169	2058606.924792
65	4515	170	2058006.924792
65	4523	171	2057406.924792
65	4531	172	2056806.924792
65	4539	173	2056206.924792
65	4547	174	2055606.924792
65	4706	175	2055007.271088
65	4714	176	2054407.271088
65	4722	177	2053807.271088
65	4730	178	2053207.271088
65	4738	179	2052607.271088
65	4746	180	2052007.271088
65	4754	181	2051407.271088
65	4762	182	2050807.271088
65	4770	183	2050207.271088
65	4778	184	2049607.271088
65	4786	185	2049007.271088
65	4794	186	2048407.271088
65	4802	187	2047807.271088
65	4810	188	2047207.271088
65	4818	189	2046607.271088
65	4826	190	2046007.271088
65	4834	191	2045407.271088
65	4842	192	2044807.271088
65	4850	193	2044207.271088
65	5006	194	2043607.5858
65	5014	195	2043007.5858
65	5022	196	2042407.5858
65	5030	197	2041807.5858
65	5038	198	2041207.5858
65	5046	199	2040607.5858
65	5054	200	2040007.5858
65	5062	201	2039407.5858
65	5070	202	2038807.5858
65	5078	203	2038207.5858
65	5086	204	2037607.5858
65	5397	205	2037008.246808
65	5405	206	2036408.246808
65	5413	207	2035808.246808
65	5421	208	2035208.246808
65	5429	209	2034608.246808
65	5437	210	2034008.246808
65	5445	211	2033408.246808
65	5453	212	2032808.246808
65	5613	213	2032208.593104
65	5621	214	2031608.593104
65	5780	215	2031008.9394
65	5788	216	2030408.9394
65	5796	217	2029808.9394
65	5804	218	2029208.9394
65	5963	219	2028609.285696
65	5971	220	2028009.285696
65	5979	221	2027409.285696
65	5987	222	2026809.285696
65	5995	223	2026209.285696
65	6003	224	2025609.285696
65	6011	225	2025009.285696
65	6019	226	2024409.285696
65	6027	227	2023809.285696
65	6035	228	2023209.285696
65	6195	229	2022609.600408
65	6203	230	2022009.600408
65	6211	231	2021409.600408
65	6219	232	2020809.600408
65	6227	233	2020209.600408
65	6235	234	2019609.600408
65	6243	235	2019009.600408
65	6251	236	2018409.600408
65	6259	237	2017809.600408
65	6267	238	2017209.600408
65	6275	239	2016609.600408
65	6587	240	2016010.229832
65	6746	241	2015410.576128
65	6754	242	2014810.576128
65	6762	243	2014210.576128
65	6770	244	2013610.576128
65	6926	245	2013010.89084
65	6934	246	2012410.89084
65	6942	247	2011810.89084
65	6950	248	2011210.89084
65	6958	249	2010610.89084
65	6966	250	2010010.89084
65	6974	251	2009410.89084
65	6982	252	2008810.89084
65	6990	253	2008210.89084
65	6998	254	2007610.89084
65	7006	255	2007010.89084
65	7014	256	2006410.89084
65	7022	257	2005810.89084
65	7030	258	2005210.89084
65	7038	259	2004610.89084
65	7046	260	2004010.89084
65	7054	261	2003410.89084
65	7062	262	2002810.89084
65	7070	263	2002210.89084
65	7230	264	2001611.205552
65	7238	265	2001011.205552
65	7246	266	2000411.205552
65	7254	267	1999811.205552
65	7262	268	1999211.205552
65	7270	269	1998611.205552
65	7278	270	1998011.205552
65	7437	271	1997411.551848
65	7445	272	1996811.551848
65	7453	273	1996211.551848
65	7461	274	1995611.551848
65	7469	275	1995011.551848
65	7477	276	1994411.551848
65	7485	277	1993811.551848
65	7493	278	1993211.551848
65	7501	279	1992611.551848
65	7660	280	1992011.86656
65	7668	281	1991411.86656
65	7676	282	1990811.86656
65	7684	283	1990211.86656
65	7692	284	1989611.86656
65	7700	285	1989011.86656
65	7708	286	1988411.86656
65	7716	287	1987811.86656
65	7724	288	1987211.86656
65	7883	289	1986612.181272
65	7891	290	1986012.181272
65	7899	291	1985412.181272
65	8058	292	1984812.495984
65	8066	293	1984212.495984
65	8074	294	1983612.495984
65	8082	295	1983012.495984
65	8090	296	1982412.495984
65	8098	297	1981812.495984
65	8258	298	1981212.84228
65	8266	299	1980612.84228
65	8274	300	1980012.84228
65	8282	301	1979412.84228
65	8290	302	1978812.84228
65	8298	303	1978212.84228
65	8306	304	1977612.84228
65	8314	305	1977012.84228
65	8322	306	1976412.84228
65	8330	307	1975812.84228
65	8338	308	1975212.84228
65	8346	309	1974612.84228
65	8354	310	1974012.84228
65	8362	311	1973412.84228
65	8370	312	1972812.84228
65	8378	313	1972212.84228
65	8386	314	1971612.84228
65	8394	315	1971012.84228
65	8402	316	1970412.84228
65	8410	317	1969812.84228
65	8418	318	1969212.84228
65	8426	319	1968612.84228
65	8585	320	1968013.188576
65	8745	321	1967413.503288
65	8753	322	1966813.503288
65	8912	323	1966213.849584
65	8920	324	1965613.849584
65	8928	325	1965013.849584
65	8936	326	1964413.849584
65	8944	327	1963813.849584
65	8952	328	1963213.849584
65	8960	329	1962613.849584
65	8968	330	1962013.849584
65	8976	331	1961413.849584
65	8984	332	1960813.849584
65	8992	333	1960213.849584
65	9000	334	1959613.849584
65	9008	335	1959013.849584
65	9016	336	1958413.849584
65	9024	337	1957813.849584
65	9184	338	1957214.164296
65	9192	339	1956614.164296
65	9200	340	1956014.164296
65	9208	341	1955414.164296
65	9216	342	1954814.164296
65	9224	343	1954214.164296
65	9383	344	1953614.479008
65	9391	345	1953014.479008
65	9399	346	1952414.479008
65	9407	347	1951814.479008
65	9563	348	1951214.825304
65	9571	349	1950614.825304
65	9730	350	1950015.1716
65	9738	351	1949415.1716
65	9746	352	1948815.1716
65	9754	353	1948215.1716
65	9762	354	1947615.1716
65	9770	355	1947015.1716
65	9778	356	1946415.1716
65	9786	357	1945815.1716
65	9945	358	1945215.486312
65	9953	359	1944615.486312
65	9961	360	1944015.486312
65	9969	361	1943415.486312
65	9977	362	1942815.486312
65	9985	363	1942215.486312
65	9993	364	1941615.486312
65	10001	365	1941015.486312
65	10009	366	1940415.486312
65	10017	367	1939815.486312
65	10025	368	1939215.486312
65	10033	369	1938615.486312
65	10041	370	1938015.486312
65	10049	371	1937415.486312
65	10057	372	1936815.486312
65	10065	373	1936215.486312
65	10221	374	1935615.801024
65	10229	375	1935015.801024
65	10237	376	1934415.801024
65	10245	377	1933815.801024
65	10253	378	1933215.801024
65	10560	379	1932616.462032
65	10568	380	1932016.462032
65	10576	381	1931416.462032
65	10584	382	1930816.462032
65	10592	383	1930216.462032
65	10600	384	1929616.462032
65	10608	385	1929016.462032
65	10616	386	1928416.462032
65	10624	387	1927816.462032
65	10632	388	1927216.462032
65	10785	389	1926616.808328
65	10793	390	1926016.808328
65	10801	391	1925416.808328
65	10809	392	1924816.808328
65	10817	393	1924216.808328
65	10825	394	1923616.808328
65	10833	395	1923016.808328
65	10992	396	1922417.154624
65	11148	397	1921817.469336
65	11156	398	1921217.469336
65	11164	399	1920617.469336
65	11172	400	1920017.469336
65	11180	401	1919417.469336
65	11188	402	1918817.469336
65	11196	403	1918217.469336
65	11204	404	1917617.469336
65	11212	405	1917017.469336
65	11220	406	1916417.469336
65	11228	407	1915817.469336
65	11236	408	1915217.469336
65	11244	409	1914617.469336
65	11252	410	1914017.469336
65	11408	411	1913417.815632
65	11416	412	1912817.815632
65	11424	413	1912217.815632
65	11432	414	1911617.815632
65	11440	415	1911017.815632
65	11448	416	1910417.815632
65	11604	417	1909818.161928
65	11760	418	1909218.508224
65	11768	419	1908618.508224
65	11776	420	1908018.508224
65	11784	421	1907418.508224
65	11792	422	1906818.508224
65	11800	423	1906218.508224
65	11808	424	1905618.508224
65	11816	425	1905018.508224
65	11824	426	1904418.508224
65	11983	427	1903818.822936
65	11991	428	1903218.822936
65	11999	429	1902618.822936
65	12007	430	1902018.822936
65	12015	431	1901418.822936
65	12023	432	1900818.822936
65	12031	433	1900218.822936
65	12039	434	1899618.822936
65	12047	435	1899018.822936
65	12055	436	1898418.822936
65	12063	437	1897818.822936
65	12071	438	1897218.822936
65	12079	439	1896618.822936
65	12087	440	1896018.822936
65	12095	441	1895418.822936
65	12103	442	1894818.822936
65	12262	443	1894219.137648
65	12270	444	1893619.137648
65	12278	445	1893019.137648
65	12286	446	1892419.137648
65	12442	447	1891819.483944
65	12450	448	1891219.483944
65	12458	449	1890619.483944
65	12466	450	1890019.483944
65	12474	451	1889419.483944
65	12482	452	1888819.483944
65	12490	453	1888219.483944
65	12498	454	1887619.483944
65	12506	455	1887019.483944
65	12514	456	1886419.483944
65	12522	457	1885819.483944
65	12530	458	1885219.483944
65	12538	459	1884619.483944
65	12546	460	1884019.483944
65	12554	461	1883419.483944
65	12562	462	1882819.483944
65	12570	463	1882219.483944
65	12578	464	1881619.483944
65	12586	465	1881019.483944
65	12738	466	1880419.83024
65	12746	467	1879819.83024
65	12754	468	1879219.83024
65	12762	469	1878619.83024
65	12770	470	1878019.83024
65	12778	471	1877419.83024
65	12937	472	1876820.144952
65	12945	473	1876220.144952
65	12953	474	1875620.144952
65	12961	475	1875020.144952
65	12969	476	1874420.144952
65	13129	477	1873820.491248
65	13137	478	1873220.491248
65	13296	479	1872620.80596
65	13304	480	1872020.80596
65	13312	481	1871420.80596
65	13320	482	1870820.80596
65	13480	483	1870221.120672
65	13488	484	1869621.120672
65	13496	485	1869021.120672
65	13504	486	1868421.120672
65	13512	487	1867821.120672
65	13520	488	1867221.120672
65	13528	489	1866621.120672
65	13687	490	1866021.435384
65	13695	491	1865421.435384
65	13703	492	1864821.435384
65	13711	493	1864221.435384
65	13719	494	1863621.435384
65	13727	495	1863021.435384
65	13735	496	1862421.435384
65	13743	497	1861821.435384
65	13751	498	1861221.435384
65	13759	499	1860621.435384
65	14069	500	1860022.096392
65	14077	501	1859422.096392
65	14085	502	1858822.096392
65	14093	503	1858222.096392
65	14101	504	1857622.096392