version 2
run TwoNodes-1-20160309-14:37:38-13743
attr configname TwoNodes
attr datetime 20160309-14:37:38
attr experiment TwoNodes
attr inifile omnetpp.ini
attr iterationvars $0=0
attr iterationvars2 "$0=0, $repetition=1"
attr measurement $0=0
attr network P2P_Wireless_Wifi
attr processid 13743
attr repetition 1
attr replication #1
attr resultdir results
attr runnumber 1
attr seedset 0

vector 16  P2P_Wireless_Wifi.node[0].batteryStats  capacity  ETV
attr unit  mW-s
vector 23  P2P_Wireless_Wifi.node[1].batteryStats  capacity  ETV
attr unit  mW-s
16	0	0	2160000
16	0	0	2160000
16	13	1	2159400
16	165	2	2158800.314712
16	173	3	2158200.314712
16	181	4	2157600.314712
16	189	5	2157000.314712
16	197	6	2156400.314712
16	205	7	2155800.314712
16	213	8	2155200.314712
16	221	9	2154600.314712
16	229	10	2154000.314712
16	237	11	2153400.314712
16	392	12	2152800.661008
16	400	13	2152200.661008
16	408	14	2151600.661008
16	416	15	2151000.661008
16	424	16	2150400.661008
16	432	17	2149800.661008
16	440	18	2149200.661008
16	448	19	2148600.661008
16	456	20	2148000.661008
16	464	21	2147400.661008
16	472	22	2146800.661008
16	480	23	2146200.661008
16	488	24	2145600.661008
16	496	25	2145000.661008
16	652	26	2144400.97572
16	660	27	2143800.97572
16	668	28	2143200.97572
16	676	29	2142600.97572
16	835	30	2142001.290432
16	843	31	2141401.290432
16	1002	32	2140801.636728
16	1010	33	2140201.636728
16	1018	34	2139601.636728
16	1177	35	2139001.983024
16	1185	36	2138401.983024
16	1193	37	2137801.983024
16	1201	38	2137201.983024
16	1209	39	2136601.983024
16	1217	40	2136001.983024
16	1225	41	2135401.983024
16	1233	42	2134801.983024
16	1241	43	2134201.983024
16	1249	44	2133601.983024
16	1408	45	2133002.297736
16	1416	46	2132402.297736
16	1424	47	2131802.297736
16	1432	48	2131202.297736
16	1440	49	2130602.297736
16	1448	50	2130002.297736
16	1456	51	2129402.297736
16	1464	52	2128802.297736
16	1472	53	2128202.297736
16	1480	54	2127602.297736
16	1488	55	2127002.297736
16	1496	56	2126402.297736
16	1504	57	2125802.297736
16	1512	58	2125202.297736
16	1520	59	2124602.297736
16	1528	60	2124002.297736
16	1536	61	2123402.297736
16	1544	62	2122802.297736
16	1552	63	2122202.297736
16	1711	64	2121602.644032
16	1871	65	2121002.958744
16	1879	66	2120402.958744
16	1887	67	2119802.958744
16	1895	68	2119202.958744
16	1903	69	2118602.958744
16	1911	70	2118002.958744
16	1919	71	2117402.958744
16	1927	72	2116802.958744
16	1935	73	2116202.958744
16	1943	74	2115602.958744
16	1951	75	2115002.958744
16	1959	76	2114402.958744
16	1967	77	2113802.958744
16	1975	78	2113202.958744
16	1983	79	2112602.958744
16	1991	80	2112002.958744
16	1999	81	2111402.958744
16	2155	82	2110803.30504
16	2163	83	2110203.30504
16	2171	84	2109603.30504
16	2179	85	2109003.30504
16	2187	86	2108403.30504
16	2195	87	2107803.30504
16	2203	88	2107203.30504
16	2211	89	2106603.30504
16	2219	90	2106003.30504
16	2379	91	2105403.619752
16	2387	92	2104803.619752
16	2547	93	2104203.966048
16	2555	94	2103603.966048
16	2563	95	2103003.966048
16	2571	96	2102403.966048
16	2579	97	2101803.966048
16	2587	98	2101203.966048
16	2743	99	2100604.28076
16	2751	100	2100004.28076
16	2759	101	2099404.28076
16	2767	102	2098804.28076
16	2775	103	2098204.28076
16	2783	104	2097604.28076
16	2791	105	2097004.28076
16	2947	106	2096404.627056
16	2955	107	2095804.627056
16	2963	108	2095204.627056
16	2971	109	2094604.627056
16	2979	110	2094004.627056
16	2987	111	2093404.627056
16	3147	112	2092804.973352
16	3155	113	2092204.973352
16	3163	114	2091604.973352
16	3171	115	2091004.973352
16	3179	116	2090404.973352
16	3187	117	2089804.973352
16	3343	118	2089205.319648
16	3351	119	2088605.319648
16	3359	120	2088005.319648
16	3519	121	2087405.63436
16	3527	122	2086805.63436
16	3535	123	2086205.63436
16	3543	124	2085605.63436
16	3551	125	2085005.63436
16	3559	126	2084405.63436
16	3567	127	2083805.63436
16	3575	128	2083205.63436
16	3583	129	2082605.63436
16	3591	130	2082005.63436
16	3599	131	2081405.63436
16	3607	132	2080805.63436
16	3615	133	2080205.63436
16	3623	134	2079605.63436
16	3631	135	2079005.63436
16	3639	136	2078405.63436
16	3647	137	2077805.63436
16	3655	138	2077205.63436
16	3663	139	2076605.63436
16	3671	140	2076005.63436
16	3679	141	2075405.63436
16	3687	142	2074805.63436
16	3695	143	2074205.63436
16	3703	144	2073605.63436
16	3711	145	2073005.63436
16	3870	146	2072405.980656
16	4030	147	2071806.295368
16	4038	148	2071206.295368
16	4046	149	2070606.295368
16	4054	150	2070006.295368
16	4062	151	2069406.295368
16	4373	152	2068806.956376
16	4381	153	2068206.956376
16	4537	154	2067607.302672
16	4545	155	2067007.302672
16	4553	156	2066407.302672
16	4561	157	2065807.302672
16	4569	158	2065207.302672
16	4577	159	2064607.302672
16	4585	160	2064007.302672
16	4593	161	2063407.302672
16	4601	162	2062807.302672
16	4609	163	2062207.302672
16	4617	164	2061607.302672
16	4625	165	2061007.302672
16	4633	166	2060407.302672
16	4641	167	2059807.302672
16	4649	168	2059207.302672
16	4657	169	2058607.302672
16	4665	170	2058007.302672
16	4673	171	2057407.302672
16	4681	172	2056807.302672
16	4837	173	2056207.617384
16	4845	174	2055607.617384
16	4853	175	2055007.617384
16	4861	176	2054407.617384
16	4869	177	2053807.617384
16	5028	178	2053207.932096
16	5036	179	2052607.932096
16	5044	180	2052007.932096
16	5052	181	2051407.932096
16	5212	182	2050808.278392
16	5220	183	2050208.278392
16	5228	184	2049608.278392
16	5236	185	2049008.278392
16	5244	186	2048408.278392
16	5252	187	2047808.278392
16	5260	188	2047208.278392
16	5420	189	2046608.624688
16	5579	190	2046008.9394
16	5587	191	2045408.9394
16	5595	192	2044808.9394
16	5603	193	2044208.9394
16	5762	194	2043609.285696
16	5770	195	2043009.285696
16	5778	196	2042409.285696
16	5786	197	2041809.285696
16	5794	198	2041209.285696
16	5802	199	2040609.285696
16	5810	200	2040009.285696
16	5962	201	2039409.631992
16	5970	202	2038809.631992
16	6129	203	2038209.946704
16	6137	204	2037609.946704
16	6145	205	2037009.946704
16	6153	206	2036409.946704
16	6161	207	2035809.946704
16	6169	208	2035209.946704
16	6177	209	2034609.946704
16	6185	210	2034009.946704
16	6193	211	2033409.946704
16	6201	212	2032809.946704
16	6209	213	2032209.946704
16	6217	214	2031609.946704
16	6225	215	2031009.946704
16	6233	216	2030409.946704
16	6241	217	2029809.946704
16	6249	218	2029209.946704
16	6257	219	2028609.946704
16	6265	220	2028009.946704
16	6273	221	2027409.946704
16	6281	222	2026809.946704
16	6289	223	2026209.946704
16	6297	224	2025609.946704
16	6305	225	2025009.946704
16	6313	226	2024409.946704
16	6321	227	2023809.946704
16	6329	228	2023209.946704
16	6337	229	2022609.946704
16	6647	230	2022010.607712
16	6655	231	2021410.607712
16	6663	232	2020810.607712
16	6671	233	2020210.607712
16	6679	234	2019610.607712
16	6687	235	2019010.607712
16	6695	236	2018410.607712
16	6703	237	2017810.607712
16	6711	238	2017210.607712
16	6719	239	2016610.607712
16	6727	240	2016010.607712
16	6735	241	2015410.607712
16	6743	242	2014810.607712
16	6751	243	2014210.607712
16	6759	244	2013610.607712
16	6767	245	2013010.607712
16	6775	246	2012410.607712
16	6783	247	2011810.607712
16	6791	248	2011210.607712
16	6799	249	2010610.607712
16	6807	250	2010010.607712
16	6815	251	2009410.607712
16	6974	252	2008810.954008
16	6982	253	2008210.954008
16	6990	254	2007610.954008
16	6998	255	2007010.954008
16	7303	256	2006411.615016
16	7311	257	2005811.615016
16	7470	258	2005211.961312
16	7478	259	2004611.961312
16	7486	260	2004011.961312
16	7645	261	2003412.307608
16	7653	262	2002812.307608
16	7661	263	2002212.307608
16	7669	264	2001612.307608
16	7677	265	2001012.307608
16	7685	266	2000412.307608
16	7693	267	1999812.307608
16	7701	268	1999212.307608
16	7709	269	1998612.307608
16	7717	270	1998012.307608
16	7725	271	1997412.307608
16	7733	272	1996812.307608
16	7741	273	1996212.307608
16	7749	274	1995612.307608
16	7757	275	1995012.307608
16	7765	276	1994412.307608
16	7773	277	1993812.307608
16	7781	278	1993212.307608
16	7789	279	1992612.307608
16	7797	280	1992012.307608
16	7805	281	1991412.307608
16	7813	282	1990812.307608
16	7821	283	1990212.307608
16	7980	284	1989612.62232
16	7988	285	1989012.62232
16	7996	286	1988412.62232
16	8004	287	1987812.62232
16	8012	288	1987212.62232
16	8020	289	1986612.62232
16	8179	290	1986012.968616
16	8187	291	1985412.968616
16	8195	292	1984812.968616
16	8203	293	1984212.968616
16	8363	294	1983613.283328
16	8371	295	1983013.283328
16	8379	296	1982413.283328
16	8538	297	1981813.629624
16	8546	298	1981213.629624
16	8554	299	1980613.629624
16	8562	300	1980013.629624
16	8570	301	1979413.629624
16	8578	302	1978813.629624
16	8586	303	1978213.629624
16	8594	304	1977613.629624
16	8602	305	1977013.629624
16	8761	306	1976413.97592
16	8769	307	1975813.97592
16	8777	308	1975213.97592
16	8785	309	1974613.97592
16	8793	310	1974013.97592
16	8801	311	1973413.97592
16	8809	312	1972813.97592
16	8817	313	1972213.97592
16	8976	314	1971614.290632
16	8984	315	1971014.290632
16	8992	316	1970414.290632
16	9000	317	1969814.290632
16	9156	318	1969214.636928
16	9164	319	1968614.636928
16	9172	320	1968014.636928
16	9180	321	1967414.636928
16	9188	322	1966814.636928
16	9196	323	1966214.636928
16	9204	324	1965614.636928
16	9359	325	1965014.95164
16	9367	326	1964414.95164
16	9375	327	1963814.95164
16	9383	328	1963214.95164
16	9391	329	1962614.95164
16	9399	330	1962014.95164
16	9407	331	1961414.95164
16	9415	332	1960814.95164
16	9423	333	1960214.95164
16	9583	334	1959615.297936
16	9591	335	1959015.297936
16	9599	336	1958415.297936
16	9607	337	1957815.297936
16	9615	338	1957215.297936
16	9623	339	1956615.297936
16	9783	340	1956015.644232
16	9791	341	1955415.644232
16	9799	342	1954815.644232
16	9807	343	1954215.644232
16	9815	344	1953615.644232
16	9823	345	1953015.644232
16	9831	346	1952415.644232
16	9839	347	1951815.644232
16	9847	348	1951215.644232
16	10007	349	1950615.990528
16	10015	350	1950015.990528
16	10023	351	1949415.990528
16	10031	352	1948815.990528
16	10039	353	1948215.990528
16	10194	354	1947616.30524
16	10202	355	1947016.30524
16	10210	356	1946416.30524
16	10218	357	1945816.30524
16	10378	358	1945216.651536
16	10386	359	1944616.651536
16	10394	360	1944016.651536
16	10402	361	1943416.651536
16	10561	362	1942816.966248
16	10569	363	1942216.966248
16	10728	364	1941617.28096
16	10736	365	1941017.28096
16	10744	366	1940417.28096
16	10752	367	1939817.28096
16	10760	368	1939217.28096
16	10916	369	1938617.627256
16	10924	370	1938017.627256
16	10932	371	1937417.627256
16	10940	372	1936817.627256
16	10948	373	1936217.627256
16	10956	374	1935617.627256
16	10964	375	1935017.627256
16	10972	376	1934417.627256
16	10980	377	1933817.627256
16	10988	378	1933217.627256
16	10996	379	1932617.627256
16	11004	380	1932017.627256
16	11012	381	1931417.627256
16	11020	382	1930817.627256
16	11028	383	1930217.627256
16	11036	384	1929617.627256
16	11192	385	1929017.941968
16	11200	386	1928417.941968
16	11208	387	1927817.941968
16	11216	388	1927217.941968
16	11224	389	1926617.941968
16	11383	390	1926018.288264
16	11542	391	1925418.602976
16	11698	392	1924818.917688
16	11706	393	1924218.917688
16	11714	394	1923618.917688
16	11722	395	1923018.917688
16	11730	396	1922418.917688
16	11738	397	1921818.917688
16	11746	398	1921218.917688
16	11754	399	1920618.917688
16	11762	400	1920018.917688
16	11770	401	1919418.917688
16	11929	402	1918819.2324
16	11937	403	1918219.2324
16	11945	404	1917619.2324
16	11953	405	1917019.2324
16	11961	406	1916419.2324
16	11969	407	1915819.2324
16	11977	408	1915219.2324
16	11985	409	1914619.2324
16	11993	410	1914019.2324
16	12001	411	1913419.2324
16	12157	412	1912819.578696
16	12165	413	1912219.578696
16	12173	414	1911619.578696
16	12181	415	1911019.578696
16	12189	416	1910419.578696
16	12197	417	1909819.578696
16	12205	418	1909219.578696
16	12213	419	1908619.578696
16	12221	420	1908019.578696
16	12229	421	1907419.578696
16	12237	422	1906819.578696
16	12245	423	1906219.578696
16	12253	424	1905619.578696
16	12261	425	1905019.578696
16	12269	426	1904419.578696
16	12428	427	1903819.893408
16	12436	428	1903219.893408
16	12444	429	1902619.893408
16	12452	430	1902019.893408
16	12460	431	1901419.893408
16	12468	432	1900819.893408
16	12476	433	1900219.893408
16	12484	434	1899619.893408
16	12492	435	1899019.893408
16	12500	436	1898419.893408
16	12508	437	1897819.893408
16	12516	438	1897219.893408
16	12524	439	1896619.893408
16	12532	440	1896019.893408
16	12691	441	1895420.239704
16	12699	442	1894820.239704
16	12707	443	1894220.239704
16	12715	444	1893620.239704
16	12723	445	1893020.239704
16	12731	446	1892420.239704
16	12739	447	1891820.239704
16	12899	448	1891220.554416
16	12907	449	1890620.554416
16	12915	450	1890020.554416
16	12923	451	1889420.554416
16	12931	452	1888820.554416
16	12939	453	1888220.554416
16	12947	454	1887620.554416
16	12955	455	1887020.554416
16	12963	456	1886420.554416
16	12971	457	1885820.554416
16	13127	458	1885220.900712
16	13135	459	1884620.900712
16	13143	460	1884020.900712
16	13151	461	1883420.900712
16	13159	462	1882820.900712
16	13167	463	1882220.900712
16	13175	464	1881620.900712
16	13183	465	1881020.900712
16	13191	466	1880420.900712
16	13199	467	1879820.900712
16	13207	468	1879220.900712
16	13366	469	1878621.215424
16	13374	470	1878021.215424
16	13833	471	1877422.191144
16	13841	472	1876822.191144
16	13849	473	1876222.191144
16	13857	474	1875622.191144
16	13865	475	1875022.191144
16	13873	476	1874422.191144
16	13881	477	1873822.191144
16	13889	478	1873222.191144
16	13897	479	1872622.191144
16	13905	480	1872022.191144
16	13913	481	1871422.191144
16	13921	482	1870822.191144
16	13929	483	1870222.191144
16	13937	484	1869622.191144
16	13945	485	1869022.191144
16	13953	486	1868422.191144
16	14109	487	1867822.505856
16	14117	488	1867222.505856
16	14125	489	1866622.505856
16	14133	490	1866022.505856
16	14141	491	1865422.505856
16	14149	492	1864822.505856
16	14157	493	1864222.505856
16	14165	494	1863622.505856
16	14173	495	1863022.505856
16	14332	496	1862422.852152
16	14340	497	1861822.852152
16	14348	498	1861222.852152
16	14356	499	1860622.852152
16	14364	500	1860022.852152
16	14372	501	1859422.852152
16	14380	502	1858822.852152
16	14388	503	1858222.852152
16	14396	504	1857622.852152
16	14404	505	1857022.852152
16	14412	506	1856422.852152
16	14420	507	1855822.852152
16	14428	508	1855222.852152
16	14583	509	1854623.198448
16	14739	510	1854023.51316
16	14747	511	1853423.51316
16	14755	512	1852823.51316
16	14763	513	1852223.51316
16	14771	514	1851623.51316
16	14779	515	1851023.51316
16	14787	516	1850423.51316
16	14795	517	1849823.51316
16	14803	518	1849223.51316
16	14811	519	1848623.51316
16	14819	520	1848023.51316
16	14827	521	1847423.51316
16	14835	522	1846823.51316
16	14843	523	1846223.51316
16	14851	524	1845623.51316
16	14859	525	1845023.51316
16	14867	526	1844423.51316
16	15027	527	1843823.859456
16	15035	528	1843223.859456
16	15043	529	1842623.859456
16	15203	530	1842024.174168
16	15211	531	1841424.174168
16	15219	532	1840824.174168
16	15227	533	1840224.174168
16	15235	534	1839624.174168
16	15243	535	1839024.174168
16	15251	536	1838424.174168
16	15259	537	1837824.174168
16	15267	538	1837224.174168
16	15275	539	1836624.174168
16	15283	540	1836024.174168
16	15291	541	1835424.174168
16	15299	542	1834824.174168
16	15307	543	1834224.174168
16	15315	544	1833624.174168
16	15323	545	1833024.174168
16	15482	546	1832424.520464
16	15490	547	1831824.520464
16	15498	548	1831224.520464
16	15506	549	1830624.520464
16	15514	550	1830024.520464
16	15673	551	1829424.835176
16	15681	552	1828824.835176
16	15689	553	1828224.835176
16	15697	554	1827624.835176
16	15705	555	1827024.835176
16	15713	556	1826424.835176
16	15721	557	1825824.835176
16	15729	558	1825224.835176
16	15737	559	1824624.835176
16	15745	560	1824024.835176
16	15753	561	1823424.835176
16	15761	562	1822824.835176
16	15769	563	1822224.835176
16	15777	564	1821624.835176
16	15785	565	1821024.835176
16	15793	566	1820424.835176
16	15801	567	1819824.835176
16	15809	568	1819224.835176
16	15817	569	1818624.835176
16	15825	570	1818024.835176
16	15833	571	1817424.835176
16	15841	572	1816824.835176
16	15997	573	1816225.181472
16	16005	574	1815625.181472
16	16165	575	1815025.496184
16	16173	576	1814425.496184
16	16484	577	1813826.157192
16	16644	578	1813226.471904
16	16652	579	1812626.471904
16	16812	580	1812026.8182
16	16820	581	1811426.8182
16	16828	582	1810826.8182
16	16836	583	1810226.8182
16	16844	584	1809626.8182
16	16852	585	1809026.8182
16	16860	586	1808426.8182
16	16868	587	1807826.8182
16	17027	588	1807227.132912
16	17035	589	1806627.132912
16	17043	590	1806027.132912
16	17051	591	1805427.132912
16	17059	592	1804827.132912
16	17067	593	1804227.132912
16	17075	594	1803627.132912
16	17083	595	1803027.132912
16	17091	596	1802427.132912
16	17099	597	1801827.132912
16	17107	598	1801227.132912
16	17115	599	1800627.132912
23	0	0	2160000
23	0	0	2160000
23	14	1	2159400
23	166	2	2158800.346296
23	174	3	2158200.346296
23	182	4	2157600.346296
23	190	5	2157000.346296
23	198	6	2156400.346296
23	206	7	2155800.346296
23	214	8	2155200.346296
23	222	9	2154600.346296
23	230	10	2154000.346296
23	238	11	2153400.346296
23	393	12	2152800.661008
23	401	13	2152200.661008
23	409	14	2151600.661008
23	417	15	2151000.661008
23	425	16	2150400.661008
23	433	17	2149800.661008
23	441	18	2149200.661008
23	449	19	2148600.661008
23	457	20	2148000.661008
23	465	21	2147400.661008
23	473	22	2146800.661008
23	481	23	2146200.661008
23	489	24	2145600.661008
23	497	25	2145000.661008
23	653	26	2144401.007304
23	661	27	2143801.007304
23	669	28	2143201.007304
23	677	29	2142601.007304
23	836	30	2142001.3536
23	844	31	2141401.3536
23	1003	32	2140801.668312
23	1011	33	2140201.668312
23	1019	34	2139601.668312
23	1178	35	2139001.983024
23	1186	36	2138401.983024
23	1194	37	2137801.983024
23	1202	38	2137201.983024
23	1210	39	2136601.983024
23	1218	40	2136001.983024
23	1226	41	2135401.983024
23	1234	42	2134801.983024
23	1242	43	2134201.983024
23	1250	44	2133601.983024
23	1409	45	2133002.32932
23	1417	46	2132402.32932
23	1425	47	2131802.32932
23	1433	48	2131202.32932
23	1441	49	2130602.32932
23	1449	50	2130002.32932
23	1457	51	2129402.32932
23	1465	52	2128802.32932
23	1473	53	2128202.32932
23	1481	54	2127602.32932
23	1489	55	2127002.32932
23	1497	56	2126402.32932
23	1505	57	2125802.32932
23	1513	58	2125202.32932
23	1521	59	2124602.32932
23	1529	60	2124002.32932
23	1537	61	2123402.32932
23	1545	62	2122802.32932
23	1553	63	2122202.32932
23	1712	64	2121602.644032
23	1872	65	2121002.990328
23	1880	66	2120402.990328
23	1888	67	2119802.990328
23	1896	68	2119202.990328
23	1904	69	2118602.990328
23	1912	70	2118002.990328
23	1920	71	2117402.990328
23	1928	72	2116802.990328
23	1936	73	2116202.990328
23	1944	74	2115602.990328
23	1952	75	2115002.990328
23	1960	76	2114402.990328
23	1968	77	2113802.990328
23	1976	78	2113202.990328
23	1984	79	2112602.990328
23	1992	80	2112002.990328
23	2000	81	2111402.990328
23	2156	82	2110803.30504
23	2164	83	2110203.30504
23	2172	84	2109603.30504
23	2180	85	2109003.30504
23	2188	86	2108403.30504
23	2196	87	2107803.30504
23	2204	88	2107203.30504
23	2212	89	2106603.30504
23	2220	90	2106003.30504
23	2380	91	2105403.651336
23	2388	92	2104803.651336
23	2548	93	2104203.966048
23	2556	94	2103603.966048
23	2564	95	2103003.966048
23	2572	96	2102403.966048
23	2580	97	2101803.966048
23	2588	98	2101203.966048
23	2744	99	2100604.312344
23	2752	100	2100004.312344
23	2760	101	2099404.312344
23	2768	102	2098804.312344
23	2776	103	2098204.312344
23	2784	104	2097604.312344
23	2792	105	2097004.312344
23	2948	106	2096404.627056
23	2956	107	2095804.627056
23	2964	108	2095204.627056
23	2972	109	2094604.627056
23	2980	110	2094004.627056
23	2988	111	2093404.627056
23	3148	112	2092804.941768
23	3156	113	2092204.941768
23	3164	114	2091604.941768
23	3172	115	2091004.941768
23	3180	116	2090404.941768
23	3188	117	2089804.941768
23	3344	118	2089205.25648
23	3352	119	2088605.25648
23	3360	120	2088005.25648
23	3520	121	2087405.602776
23	3528	122	2086805.602776
23	3536	123	2086205.602776
23	3544	124	2085605.602776
23	3552	125	2085005.602776
23	3560	126	2084405.602776
23	3568	127	2083805.602776
23	3576	128	2083205.602776
23	3584	129	2082605.602776
23	3592	130	2082005.602776
23	3600	131	2081405.602776
23	3608	132	2080805.602776
23	3616	133	2080205.602776
23	3624	134	2079605.602776
23	3632	135	2079005.602776
23	3640	136	2078405.602776
23	3648	137	2077805.602776
23	3656	138	2077205.602776
23	3664	139	2076605.602776
23	3672	140	2076005.602776
23	3680	141	2075405.602776
23	3688	142	2074805.602776
23	3696	143	2074205.602776
23	3704	144	2073605.602776
23	3712	145	2073005.602776
23	3871	146	2072405.917488
23	4031	147	2071806.263784
23	4039	148	2071206.263784
23	4047	149	2070606.263784
23	4055	150	2070006.263784
23	4063	151	2069406.263784
23	4374	152	2068806.924792
23	4382	153	2068206.924792
23	4538	154	2067607.239504
23	4546	155	2067007.239504
23	4554	156	2066407.239504
23	4562	157	2065807.239504
23	4570	158	2065207.239504
23	4578	159	2064607.239504
23	4586	160	2064007.239504
23	4594	161	2063407.239504
23	4602	162	2062807.239504
23	4610	163	2062207.239504
23	4618	164	2061607.239504
23	4626	165	2061007.239504
23	4634	166	2060407.239504
23	4642	167	2059807.239504
23	4650	168	2059207.239504
23	4658	169	2058607.239504
23	4666	170	2058007.239504
23	4674	171	2057407.239504
23	4682	172	2056807.239504
23	4838	173	2056207.5858
23	4846	174	2055607.5858
23	4854	175	2055007.5858
23	4862	176	2054407.5858
23	4870	177	2053807.5858
23	5029	178	2053207.932096
23	5037	179	2052607.932096
23	5045	180	2052007.932096
23	5053	181	2051407.932096
23	5213	182	2050808.246808
23	5221	183	2050208.246808
23	5229	184	2049608.246808
23	5237	185	2049008.246808
23	5245	186	2048408.246808
23	5253	187	2047808.246808
23	5261	188	2047208.246808
23	5421	189	2046608.56152
23	5580	190	2046008.907816
23	5588	191	2045408.907816
23	5596	192	2044808.907816
23	5604	193	2044208.907816
23	5763	194	2043609.222528
23	5771	195	2043009.222528
23	5779	196	2042409.222528
23	5787	197	2041809.222528
23	5795	198	2041209.222528
23	5803	199	2040609.222528
23	5811	200	2040009.222528
23	5963	201	2039409.53724
23	5971	202	2038809.53724
23	6130	203	2038209.883536
23	6138	204	2037609.883536
23	6146	205	2037009.883536
23	6154	206	2036409.883536
23	6162	207	2035809.883536
23	6170	208	2035209.883536
23	6178	209	2034609.883536
23	6186	210	2034009.883536
23	6194	211	2033409.883536
23	6202	212	2032809.883536
23	6210	213	2032209.883536
23	6218	214	2031609.883536
23	6226	215	2031009.883536
23	6234	216	2030409.883536
23	6242	217	2029809.883536
23	6250	218	2029209.883536
23	6258	219	2028609.883536
23	6266	220	2028009.883536
23	6274	221	2027409.883536
23	6282	222	2026809.883536
23	6290	223	2026209.883536
23	6298	224	2025609.883536
23	6306	225	2025009.883536
23	6314	226	2024409.883536
23	6322	227	2023809.883536
23	6330	228	2023209.883536
23	6338	229	2022609.883536
23	6648	230	2022010.544544
23	6656	231	2021410.544544
23	6664	232	2020810.544544
23	6672	233	2020210.544544
23	6680	234	2019610.544544
23	6688	235	2019010.544544
23	6696	236	2018410.544544
23	6704	237	2017810.544544
23	6712	238	2017210.544544
23	6720	239	2016610.544544
23	6728	240	2016010.544544
23	6736	241	2015410.544544
23	6744	242	2014810.544544
23	6752	243	2014210.544544
23	6760	244	2013610.544544
23	6768	245	2013010.544544
23	6776	246	2012410.544544
23	6784	247	2011810.544544
23	6792	248	2011210.544544
23	6800	249	2010610.544544
23	6808	250	2010010.544544
23	6816	251	2009410.544544
23	6975	252	2008810.859256
23	6983	253	2008210.859256
23	6991	254	2007610.859256
23	6999	255	2007010.859256
23	7304	256	2006411.520264
23	7312	257	2005811.520264
23	7471	258	2005211.834976
23	7479	259	2004611.834976
23	7487	260	2004011.834976
23	7646	261	2003412.149688
23	7654	262	2002812.149688
23	7662	263	2002212.149688
23	7670	264	2001612.149688
23	7678	265	2001012.149688
23	7686	266	2000412.149688
23	7694	267	1999812.149688
23	7702	268	1999212.149688
23	7710	269	1998612.149688
23	7718	270	1998012.149688
23	7726	271	1997412.149688
23	7734	272	1996812.149688
23	7742	273	1996212.149688
23	7750	274	1995612.149688
23	7758	275	1995012.149688
23	7766	276	1994412.149688
23	7774	277	1993812.149688
23	7782	278	1993212.149688
23	7790	279	1992612.149688
23	7798	280	1992012.149688
23	7806	281	1991412.149688
23	7814	282	1990812.149688
23	7822	283	1990212.149688
23	7981	284	1989612.495984
23	7989	285	1989012.495984
23	7997	286	1988412.495984
23	8005	287	1987812.495984
23	8013	288	1987212.495984
23	8021	289	1986612.495984
23	8180	290	1986012.810696
23	8188	291	1985412.810696
23	8196	292	1984812.810696
23	8204	293	1984212.810696
23	8364	294	1983613.156992
23	8372	295	1983013.156992
23	8380	296	1982413.156992
23	8539	297	1981813.471704
23	8547	298	1981213.471704
23	8555	299	1980613.471704
23	8563	300	1980013.471704
23	8571	301	1979413.471704
23	8579	302	1978813.471704
23	8587	303	1978213.471704
23	8595	304	1977613.471704
23	8603	305	1977013.471704
23	8762	306	1976413.786416
23	8770	307	1975813.786416
23	8778	308	1975213.786416
23	8786	309	1974613.786416
23	8794	310	1974013.786416
23	8802	311	1973413.786416
23	8810	312	1972813.786416
23	8818	313	1972213.786416
23	8977	314	1971614.132712
23	8985	315	1971014.132712
23	8993	316	1970414.132712
23	9001	317	1969814.132712
23	9157	318	1969214.447424
23	9165	319	1968614.447424
23	9173	320	1968014.447424
23	9181	321	1967414.447424
23	9189	322	1966814.447424
23	9197	323	1966214.447424
23	9205	324	1965614.447424
23	9360	325	1965014.79372
23	9368	326	1964414.79372
23	9376	327	1963814.79372
23	9384	328	1963214.79372
23	9392	329	1962614.79372
23	9400	330	1962014.79372
23	9408	331	1961414.79372
23	9416	332	1960814.79372
23	9424	333	1960214.79372
23	9584	334	1959615.108432
23	9592	335	1959015.108432
23	9600	336	1958415.108432
23	9608	337	1957815.108432
23	9616	338	1957215.108432
23	9624	339	1956615.108432
23	9784	340	1956015.423144
23	9792	341	1955415.423144
23	9800	342	1954815.423144
23	9808	343	1954215.423144
23	9816	344	1953615.423144
23	9824	345	1953015.423144
23	9832	346	1952415.423144
23	9840	347	1951815.423144
23	9848	348	1951215.423144
23	10008	349	1950615.737856
23	10016	350	1950015.737856
23	10024	351	1949415.737856
23	10032	352	1948815.737856
23	10040	353	1948215.737856
23	10195	354	1947616.084152
23	10203	355	1947016.084152
23	10211	356	1946416.084152
23	10219	357	1945816.084152
23	10379	358	1945216.398864
23	10387	359	1944616.398864
23	10395	360	1944016.398864
23	10403	361	1943416.398864
23	10562	362	1942816.74516
23	10570	363	1942216.74516
23	10729	364	1941617.091456
23	10737	365	1941017.091456
23	10745	366	1940417.091456
23	10753	367	1939817.091456
23	10761	368	1939217.091456
23	10917	369	1938617.406168
23	10925	370	1938017.406168
23	10933	371	1937417.406168
23	10941	372	1936817.406168
23	10949	373	1936217.406168
23	10957	374	1935617.406168
23	10965	375	1935017.406168
23	10973	376	1934417.406168
23	10981	377	1933817.406168
23	10989	378	1933217.406168
23	10997	379	1932617.406168
23	11005	380	1932017.406168
23	11013	381	1931417.406168
23	11021	382	1930817.406168
23	11029	383	1930217.406168
23	11037	384	1929617.406168
23	11193	385	1929017.752464
23	11201	386	1928417.752464
23	11209	387	1927817.752464
23	11217	388	1927217.752464
23	11225	389	1926617.752464
23	11384	390	1926018.067176
23	11543	391	1925418.413472
23	11699	392	1924818.759768
23	11707	393	1924218.759768
23	11715	394	1923618.759768
23	11723	395	1923018.759768
23	11731	396	1922418.759768
23	11739	397	1921818.759768
23	11747	398	1921218.759768
23	11755	399	1920618.759768
23	11763	400	1920018.759768
23	11771	401	1919418.759768
23	11930	402	1918819.106064
23	11938	403	1918219.106064
23	11946	404	1917619.106064
23	11954	405	1917019.106064
23	11962	406	1916419.106064
23	11970	407	1915819.106064
23	11978	408	1915219.106064
23	11986	409	1914619.106064
23	11994	410	1914019.106064
23	12002	411	1913419.106064
23	12158	412	1912819.420776
23	12166	413	1912219.420776
23	12174	414	1911619.420776
23	12182	415	1911019.420776
23	12190	416	1910419.420776
23	12198	417	1909819.420776
23	12206	418	1909219.420776
23	12214	419	1908619.420776
23	12222	420	1908019.420776
23	12230	421	1907419.420776
23	12238	422	1906819.420776
23	12246	423	1906219.420776
23	12254	424	1905619.420776
23	12262	425	1905019.420776
23	12270	426	1904419.420776
23	12429	427	1903819.767072
23	12437	428	1903219.767072
23	12445	429	1902619.767072
23	12453	430	1902019.767072
23	12461	431	1901419.767072
23	12469	432	1900819.767072
23	12477	433	1900219.767072
23	12485	434	1899619.767072
23	12493	435	1899019.767072
23	12501	436	1898419.767072
23	12509	437	1897819.767072
23	12517	438	1897219.767072
23	12525	439	1896619.767072
23	12533	440	1896019.767072
23	12692	441	1895420.081784
23	12700	442	1894820.081784
23	12708	443	1894220.081784
23	12716	444	1893620.081784
23	12724	445	1893020.081784
23	12732	446	1892420.081784
23	12740	447	1891820.081784
23	12900	448	1891220.42808
23	12908	449	1890620.42808
23	12916	450	1890020.42808
23	12924	451	1889420.42808
23	12932	452	1888820.42808
23	12940	453	1888220.42808
23	12948	454	1887620.42808
23	12956	455	1887020.42808
23	12964	456	1886420.42808
23	12972	457	1885820.42808
23	13128	458	1885220.742792
23	13136	459	1884620.742792
23	13144	460	1884020.742792
23	13152	461	1883420.742792
23	13160	462	1882820.742792
23	13168	463	1882220.742792
23	13176	464	1881620.742792
23	13184	465	1881020.742792
23	13192	466	1880420.742792
23	13200	467	1879820.742792
23	13208	468	1879220.742792
23	13367	469	1878621.089088
23	13375	470	1878021.089088
23	13834	471	1877422.096392
23	13842	472	1876822.096392
23	13850	473	1876222.096392
23	13858	474	1875622.096392
23	13866	475	1875022.096392
23	13874	476	1874422.096392
23	13882	477	1873822.096392
23	13890	478	1873222.096392
23	13898	479	1872622.096392
23	13906	480	1872022.096392
23	13914	481	1871422.096392
23	13922	482	1870822.096392
23	13930	483	1870222.096392
23	13938	484	1869622.096392
23	13946	485	1869022.096392
23	13954	486	1868422.096392
23	14110	487	1867822.442688
23	14118	488	1867222.442688
23	14126	489	1866622.442688
23	14134	490	1866022.442688
23	14142	491	1865422.442688
23	14150	492	1864822.442688
23	14158	493	1864222.442688