version 2
run TwoNodes-5-20160329-21:08:03-15766
attr configname TwoNodes
attr datetime 20160329-21:08:03
attr experiment TwoNodes
attr inifile omnetpp.ini
attr iterationvars $0=1
attr iterationvars2 "$0=1, $repetition=2"
attr measurement $0=1
attr network P2P_Wireless_Wifi
attr processid 15766
attr repetition 2
attr replication #2
attr resultdir results
attr runnumber 5
attr seedset 1

vector 72  P2P_Wireless_Wifi.node[0].batteryStats  capacity  ETV
attr unit  mW-s
vector 79  P2P_Wireless_Wifi.node[1].batteryStats  capacity  ETV
attr unit  mW-s
72	0	0	2160000
72	0	0	2160000
72	13	1	2159400
72	21	2	2158800
72	29	3	2158200
72	37	4	2157600
72	45	5	2157000
72	53	6	2156400
72	61	7	2155800
72	69	8	2155200
72	77	9	2154600
72	85	10	2154000
72	93	11	2153400
72	113	12	2152800.084036
72	121	13	2152200.084036
72	129	14	2151600.084036
72	137	15	2151000.084036
72	145	16	2150400.084036
72	165	17	2149800.168072
72	173	18	2149200.168072
72	181	19	2148600.168072
72	189	20	2148000.168072
72	209	21	2147400.168072
72	229	22	2146800.252108
72	237	23	2146200.252108
72	245	24	2145600.252108
72	253	25	2145000.252108
72	273	26	2144400.252108
72	293	27	2143800.336144
72	301	28	2143200.336144
72	309	29	2142600.336144
72	317	30	2142000.336144
72	337	31	2141400.336144
72	357	32	2140800.42018
72	365	33	2140200.42018
72	373	34	2139600.42018
72	381	35	2139000.42018
72	401	36	2138400.42018
72	421	37	2137800.504216
72	429	38	2137200.504216
72	437	39	2136600.504216
72	445	40	2136000.504216
72	465	41	2135400.504216
72	485	42	2134800.588252
72	493	43	2134200.588252
72	501	44	2133600.588252
72	509	45	2133000.588252
72	529	46	2132400.588252
72	549	47	2131800.672288
72	557	48	2131200.672288
72	565	49	2130600.672288
72	573	50	2130000.672288
72	593	51	2129400.672288
72	613	52	2128800.756324
72	621	53	2128200.756324
72	629	54	2127600.756324
72	637	55	2127000.756324
72	657	56	2126400.756324
72	677	57	2125800.84036
72	685	58	2125200.84036
72	693	59	2124600.84036
72	701	60	2124000.84036
72	721	61	2123400.84036
72	741	62	2122800.924396
72	749	63	2122200.924396
72	757	64	2121600.924396
72	765	65	2121000.924396
72	782	66	2120400.924396
72	802	67	2119801.008432
72	810	68	2119201.008432
72	818	69	2118601.008432
72	826	70	2118001.008432
72	846	71	2117401.008432
72	866	72	2116801.092468
72	874	73	2116201.092468
72	882	74	2115601.092468
72	890	75	2115001.092468
72	910	76	2114401.092468
72	930	77	2113801.176504
72	938	78	2113201.176504
72	946	79	2112601.176504
72	954	80	2112001.176504
72	974	81	2111401.176504
72	994	82	2110801.26054
72	1002	83	2110201.26054
72	1010	84	2109601.26054
72	1018	85	2109001.26054
72	1038	86	2108401.26054
72	1058	87	2107801.344576
72	1066	88	2107201.344576
72	1074	89	2106601.344576
72	1082	90	2106001.344576
72	1102	91	2105401.344576
72	1119	92	2104801.428612
72	1127	93	2104201.428612
72	1135	94	2103601.428612
72	1143	95	2103001.428612
72	1163	96	2102401.428612
72	1183	97	2101801.512648
72	1191	98	2101201.512648
72	1199	99	2100601.512648
72	1207	100	2100001.512648
72	1227	101	2099401.512648
72	1247	102	2098801.596684
72	1255	103	2098201.596684
72	1263	104	2097601.596684
72	1271	105	2097001.596684
72	1291	106	2096401.596684
72	1311	107	2095801.68072
72	1319	108	2095201.68072
72	1327	109	2094601.68072
72	1335	110	2094001.68072
72	1355	111	2093401.68072
72	1375	112	2092801.764756
72	1383	113	2092201.764756
72	1391	114	2091601.764756
72	1399	115	2091001.764756
72	1419	116	2090401.764756
72	1439	117	2089801.848792
72	1447	118	2089201.848792
72	1455	119	2088601.848792
72	1463	120	2088001.848792
72	1483	121	2087401.848792
72	1503	122	2086801.932828
72	1511	123	2086201.932828
72	1519	124	2085601.932828
72	1527	125	2085001.932828
72	1547	126	2084401.932828
72	1567	127	2083802.016864
72	1575	128	2083202.016864
72	1583	129	2082602.016864
72	1591	130	2082002.016864
72	1611	131	2081402.016864
72	1631	132	2080802.1009
72	1639	133	2080202.1009
72	1647	134	2079602.1009
72	1655	135	2079002.1009
72	1675	136	2078402.1009
72	1695	137	2077802.184936
72	1703	138	2077202.184936
72	1711	139	2076602.184936
72	1719	140	2076002.184936
72	1739	141	2075402.184936
72	1759	142	2074802.268972
72	1767	143	2074202.268972
72	1775	144	2073602.268972
72	1783	145	2073002.268972
72	1803	146	2072402.268972
72	1823	147	2071802.353008
72	1831	148	2071202.353008
72	1839	149	2070602.353008
72	1847	150	2070002.353008
72	1867	151	2069402.353008
72	1887	152	2068802.437044
72	1895	153	2068202.437044
72	1903	154	2067602.437044
72	1911	155	2067002.437044
72	1931	156	2066402.437044
72	1951	157	2065802.52108
72	1959	158	2065202.52108
72	1967	159	2064602.52108
72	1975	160	2064002.52108
72	1995	161	2063402.52108
72	2015	162	2062802.605116
72	2023	163	2062202.605116
72	2031	164	2061602.605116
72	2039	165	2061002.605116
72	2059	166	2060402.605116
72	2079	167	2059802.689152
72	2087	168	2059202.689152
72	2095	169	2058602.689152
72	2103	170	2058002.689152
72	2123	171	2057402.689152
72	2140	172	2056802.773188
72	2148	173	2056202.773188
72	2156	174	2055602.773188
72	2164	175	2055002.773188
72	2184	176	2054402.773188
72	2204	177	2053802.857224
72	2212	178	2053202.857224
72	2220	179	2052602.857224
72	2228	180	2052002.857224
72	2248	181	2051402.857224
72	2268	182	2050802.94126
72	2276	183	2050202.94126
72	2284	184	2049602.94126
72	2292	185	2049002.94126
72	2312	186	2048402.94126
72	2332	187	2047803.025296
72	2340	188	2047203.025296
72	2348	189	2046603.025296
72	2356	190	2046003.025296
72	2376	191	2045403.025296
72	2396	192	2044803.109332
72	2404	193	2044203.109332
72	2412	194	2043603.109332
72	2420	195	2043003.109332
72	2440	196	2042403.109332
72	2460	197	2041803.193368
72	2468	198	2041203.193368
72	2476	199	2040603.193368
72	2484	200	2040003.193368
72	2504	201	2039403.193368
72	2524	202	2038803.277404
72	2532	203	2038203.277404
72	2540	204	2037603.277404
72	2548	205	2037003.277404
72	2568	206	2036403.277404
72	2588	207	2035803.36144
72	2596	208	2035203.36144
72	2604	209	2034603.36144
72	2612	210	2034003.36144
72	2632	211	2033403.36144
72	2652	212	2032803.445476
72	2660	213	2032203.445476
72	2668	214	2031603.445476
72	2676	215	2031003.445476
72	2696	216	2030403.445476
72	2716	217	2029803.529512
72	2724	218	2029203.529512
72	2732	219	2028603.529512
72	2740	220	2028003.529512
72	2760	221	2027403.529512
72	2780	222	2026803.613548
72	2788	223	2026203.613548
72	2796	224	2025603.613548
72	2804	225	2025003.613548
72	2824	226	2024403.613548
72	2844	227	2023803.697584
72	2852	228	2023203.697584
72	2860	229	2022603.697584
72	2868	230	2022003.697584
72	2888	231	2021403.697584
72	2905	232	2020803.78162
72	2913	233	2020203.78162
72	2921	234	2019603.78162
72	2929	235	2019003.78162
72	2949	236	2018403.78162
72	2969	237	2017803.865656
72	2977	238	2017203.865656
72	2985	239	2016603.865656
72	2993	240	2016003.865656
72	3013	241	2015403.865656
72	3033	242	2014803.949692
72	3041	243	2014203.949692
72	3049	244	2013603.949692
72	3057	245	2013003.949692
72	3077	246	2012403.949692
72	3097	247	2011804.033728
72	3105	248	2011204.033728
72	3113	249	2010604.033728
72	3121	250	2010004.033728
72	3141	251	2009404.033728
72	3161	252	2008804.117764
72	3169	253	2008204.117764
72	3177	254	2007604.117764
72	3185	255	2007004.117764
72	3205	256	2006404.117764
72	3225	257	2005804.2018
72	3233	258	2005204.2018
72	3241	259	2004604.2018
72	3249	260	2004004.2018
72	3269	261	2003404.2018
72	3289	262	2002804.285836
72	3297	263	2002204.285836
72	3305	264	2001604.285836
72	3313	265	2001004.285836
72	3333	266	2000404.285836
72	3350	267	1999804.369872
72	3358	268	1999204.369872
72	3366	269	1998604.369872
72	3374	270	1998004.369872
72	3394	271	1997404.369872
72	3414	272	1996804.453908
72	3422	273	1996204.453908
72	3430	274	1995604.453908
72	3438	275	1995004.453908
72	3458	276	1994404.453908
72	3478	277	1993804.537944
72	3486	278	1993204.537944
72	3494	279	1992604.537944
72	3502	280	1992004.537944
72	3522	281	1991404.537944
72	3542	282	1990804.62198
72	3550	283	1990204.62198
72	3558	284	1989604.62198
72	3566	285	1989004.62198
72	3586	286	1988404.62198
72	3603	287	1987804.706016
72	3611	288	1987204.706016
72	3619	289	1986604.706016
72	3627	290	1986004.706016
72	3647	291	1985404.706016
72	3667	292	1984804.790052
72	3675	293	1984204.790052
72	3683	294	1983604.790052
72	3691	295	1983004.790052
72	3711	296	1982404.790052
72	3731	297	1981804.874088
72	3739	298	1981204.874088
72	3747	299	1980604.874088
72	3755	300	1980004.874088
72	3775	301	1979404.874088
72	3795	302	1978804.958124
72	3803	303	1978204.958124
72	3811	304	1977604.958124
72	3819	305	1977004.958124
72	3839	306	1976404.958124
72	3859	307	1975805.04216
72	3867	308	1975205.04216
72	3875	309	1974605.04216
72	3883	310	1974005.04216
72	3903	311	1973405.04216
72	3923	312	1972805.126196
72	3931	313	1972205.126196
72	3939	314	1971605.126196
72	3947	315	1971005.126196
72	3967	316	1970405.126196
72	3987	317	1969805.210232
72	3995	318	1969205.210232
72	4003	319	1968605.210232
72	4011	320	1968005.210232
72	4031	321	1967405.210232
72	4051	322	1966805.294268
72	4059	323	1966205.294268
72	4067	324	1965605.294268
72	4075	325	1965005.294268
72	4095	326	1964405.294268
72	4115	327	1963805.378304
72	4123	328	1963205.378304
72	4131	329	1962605.378304
72	4139	330	1962005.378304
72	4159	331	1961405.378304
72	4179	332	1960805.46234
72	4187	333	1960205.46234
72	4195	334	1959605.46234
72	4203	335	1959005.46234
72	4223	336	1958405.46234
72	4243	337	1957805.546376
72	4251	338	1957205.546376
72	4259	339	1956605.546376
72	4267	340	1956005.546376
72	4287	341	1955405.546376
72	4307	342	1954805.630412
72	4315	343	1954205.630412
72	4323	344	1953605.630412
72	4331	345	1953005.630412
72	4351	346	1952405.630412
72	4371	347	1951805.714448
72	4379	348	1951205.714448
72	4387	349	1950605.714448
72	4395	350	1950005.714448
72	4415	351	1949405.714448
72	4435	352	1948805.798484
72	4443	353	1948205.798484
72	4451	354	1947605.798484
72	4459	355	1947005.798484
72	4479	356	1946405.798484
72	4499	357	1945805.88252
72	4507	358	1945205.88252
72	4515	359	1944605.88252
72	4523	360	1944005.88252
72	4543	361	1943405.88252
72	4560	362	1942805.966556
72	4568	363	1942205.966556
72	4576	364	1941605.966556
72	4584	365	1941005.966556
72	4604	366	1940405.966556
72	4624	367	1939806.050592
72	4632	368	1939206.050592
72	4640	369	1938606.050592
72	4648	370	1938006.050592
72	4668	371	1937406.050592
72	4688	372	1936806.134628
72	4696	373	1936206.134628
72	4704	374	1935606.134628
72	4712	375	1935006.134628
72	4732	376	1934406.134628
72	4752	377	1933806.218664
72	4760	378	1933206.218664
72	4768	379	1932606.218664
72	4776	380	1932006.218664
72	4796	381	1931406.218664
72	4816	382	1930806.3027
72	4824	383	1930206.3027
72	4832	384	1929606.3027
72	4840	385	1929006.3027
72	4860	386	1928406.3027
72	4880	387	1927806.386736
72	4888	388	1927206.386736
72	4896	389	1926606.386736
72	4904	390	1926006.386736
72	4924	391	1925406.386736
72	4941	392	1924806.470772
72	4949	393	1924206.470772
72	4957	394	1923606.470772
72	4965	395	1923006.470772
72	4985	396	1922406.470772
72	5005	397	1921806.554808
72	5013	398	1921206.554808
72	5021	399	1920606.554808
72	5029	400	1920006.554808
72	5049	401	1919406.554808
72	5069	402	1918806.638844
72	5077	403	1918206.638844
72	5085	404	1917606.638844
72	5093	405	1917006.638844
72	5113	406	1916406.638844
72	5133	407	1915806.72288
72	5141	408	1915206.72288
72	5149	409	1914606.72288
72	5157	410	1914006.72288
72	5177	411	1913406.72288
72	5197	412	1912806.806916
72	5205	413	1912206.806916
72	5213	414	1911606.806916
72	5221	415	1911006.806916
72	5241	416	1910406.806916
72	5261	417	1909806.890952
72	5269	418	1909206.890952
72	5277	419	1908606.890952
72	5285	420	1908006.890952
72	5305	421	1907406.890952
72	5325	422	1906806.974988
72	5333	423	1906206.974988
72	5341	424	1905606.974988
72	5349	425	1905006.974988
72	5369	426	1904406.974988
72	5389	427	1903807.059024
72	5397	428	1903207.059024
72	5405	429	1902607.059024
72	5413	430	1902007.059024
72	5433	431	1901407.059024
72	5453	432	1900807.14306
72	5461	433	1900207.14306
72	5469	434	1899607.14306
72	5477	435	1899007.14306
72	5494	436	1898407.14306
72	5514	437	1897807.227096
72	5522	438	1897207.227096
72	5530	439	1896607.227096
72	5538	440	1896007.227096
72	5558	441	1895407.227096
72	5578	442	1894807.311132
72	5586	443	1894207.311132
72	5594	444	1893607.311132
72	5602	445	1893007.311132
72	5622	446	1892407.311132
72	5642	447	1891807.395168
72	5650	448	1891207.395168
72	5658	449	1890607.395168
72	5666	450	1890007.395168
72	5686	451	1889407.395168
72	5706	452	1888807.479204
72	5714	453	1888207.479204
72	5722	454	1887607.479204
72	5730	455	1887007.479204
72	5750	456	1886407.479204
72	5770	457	1885807.56324
72	5778	458	1885207.56324
72	5786	459	1884607.56324
72	5794	460	1884007.56324
72	5814	461	1883407.56324
72	5834	462	1882807.647276
72	5842	463	1882207.647276
72	5850	464	1881607.647276
72	5858	465	1881007.647276
72	5878	466	1880407.647276
72	5898	467	1879807.731312
72	5906	468	1879207.731312
72	5914	469	1878607.731312
72	5922	470	1878007.731312
72	5942	471	1877407.731312
72	5962	472	1876807.815348
72	5970	473	1876207.815348
72	5978	474	1875607.815348
72	5986	475	1875007.815348
72	6006	476	1874407.815348
72	6026	477	1873807.899384
72	6034	478	1873207.899384
72	6042	479	1872607.899384
72	6050	480	1872007.899384
72	6070	481	1871407.899384
72	6090	482	1870807.98342
72	6098	483	1870207.98342
72	6106	484	1869607.98342
72	6114	485	1869007.98342
72	6134	486	1868407.98342
72	6154	487	1867808.067456
72	6162	488	1867208.067456
72	6170	489	1866608.067456
72	6178	490	1866008.067456
72	6198	491	1865408.067456
72	6218	492	1864808.151492
72	6226	493	1864208.151492
72	6234	494	1863608.151492
72	6242	495	1863008.151492
72	6262	496	1862408.151492
72	6282	497	1861808.235528
72	6290	498	1861208.235528
72	6298	499	1860608.235528
72	6306	500	1860008.235528
72	6323	501	1859408.235528
72	6343	502	1858808.319564
72	6351	503	1858208.319564
72	6359	504	1857608.319564
72	6367	505	1857008.319564
72	6387	506	1856408.319564
72	6407	507	1855808.4036
72	6415	508	1855208.4036
72	6423	509	1854608.4036
72	6431	510	1854008.4036
72	6451	511	1853408.4036
72	6471	512	1852808.487636
72	6479	513	1852208.487636
72	6487	514	1851608.487636
72	6495	515	1851008.487636
72	6515	516	1850408.487636
72	6532	517	1849808.571672
72	6540	518	1849208.571672
72	6548	519	1848608.571672
72	6556	520	1848008.571672
72	6576	521	1847408.571672
72	6596	522	1846808.655708
72	6604	523	1846208.655708
72	6612	524	1845608.655708
72	6620	525	1845008.655708
72	6640	526	1844408.655708
72	6660	527	1843808.739744
72	6668	528	1843208.739744
72	6676	529	1842608.739744
72	6684	530	1842008.739744
72	6704	531	1841408.739744
72	6724	532	1840808.82378
72	6732	533	1840208.82378
72	6740	534	1839608.82378
72	6748	535	1839008.82378
72	6768	536	1838408.82378
72	6788	537	1837808.907816
72	6796	538	1837208.907816
72	6804	539	1836608.907816
72	6812	540	1836008.907816
72	6832	541	1835408.907816
72	6852	542	1834808.991852
72	6860	543	1834208.991852
72	6868	544	1833608.991852
72	6876	545	1833008.991852
72	6896	546	1832408.991852
72	6916	547	1831809.075888
72	6924	548	1831209.075888
72	6932	549	1830609.075888
72	6940	550	1830009.075888
72	6960	551	1829409.075888
72	6980	552	1828809.159924
72	6988	553	1828209.159924
72	6996	554	1827609.159924
72	7004	555	1827009.159924
72	7024	556	1826409.159924
72	7044	557	1825809.24396
72	7052	558	1825209.24396
72	7060	559	1824609.24396
72	7068	560	1824009.24396
72	7088	561	1823409.24396
72	7108	562	1822809.327996
72	7116	563	1822209.327996
72	7124	564	1821609.327996
72	7132	565	1821009.327996
72	7152	566	1820409.327996
72	7172	567	1819809.412032
72	7180	568	1819209.412032
72	7188	569	1818609.412032
72	7196	570	1818009.412032
72	7216	571	1817409.412032
72	7236	572	1816809.496068
72	7244	573	1816209.496068
72	7252	574	1815609.496068
72	7260	575	1815009.496068
72	7280	576	1814409.496068
72	7300	577	1813809.580104
72	7308	578	1813209.580104
72	7316	579	1812609.580104
72	7324	580	1812009.580104
72	7344	581	1811409.580104
72	7364	582	1810809.66414
72	7372	583	1810209.66414
72	7380	584	1809609.66414
72	7388	585	1809009.66414
72	7408	586	1808409.66414
72	7428	587	1807809.748176
72	7436	588	1807209.748176
72	7444	589	1806609.748176
72	7452	590	1806009.748176
72	7472	591	1805409.748176
72	7492	592	1804809.832212
72	7500	593	1804209.832212
72	7508	594	1803609.832212
72	7516	595	1803009.832212
72	7536	596	1802409.832212
72	7556	597	1801809.916248
72	7564	598	1801209.916248
72	7572	599	1800609.916248
79	0	0	2160000
79	0	0	2160000
79	14	1	2159400
79	22	2	2158800
79	30	3	2158200
79	38	4	2157600
79	46	5	2157000
79	54	6	2156400
79	62	7	2155800
79	70	8	2155200
79	78	9	2154600
79	86	10	2154000
79	94	11	2153400
79	114	12	2152800
79	122	13	2152200
79	130	14	2151600
79	138	15	2151000
79	146	16	2150400
79	166	17	2149800
79	174	18	2149200
79	182	19	2148600
79	190	20	2148000
79	210	21	2147400.084036
79	230	22	2146800.084036
79	238	23	2146200.084036
79	246	24	2145600.084036
79	254	25	2145000.084036
79	274	26	2144400.168072
79	294	27	2143800.168072
79	302	28	2143200.168072
79	310	29	2142600.168072
79	318	30	2142000.168072
79	338	31	2141400.252108
79	358	32	2140800.252108
79	366	33	2140200.252108
79	374	34	2139600.252108
79	382	35	2139000.252108
79	402	36	2138400.336144
79	422	37	2137800.336144
79	430	38	2137200.336144
79	438	39	2136600.336144
79	446	40	2136000.336144
79	466	41	2135400.42018
79	486	42	2134800.42018
79	494	43	2134200.42018
79	502	44	2133600.42018
79	510	45	2133000.42018
79	530	46	2132400.504216
79	550	47	2131800.504216
79	558	48	2131200.504216
79	566	49	2130600.504216
79	574	50	2130000.504216
79	594	51	2129400.588252
79	614	52	2128800.588252
79	622	53	2128200.588252
79	630	54	2127600.588252
79	638	55	2127000.588252
79	658	56	2126400.672288
79	678	57	2125800.672288
79	686	58	2125200.672288
79	694	59	2124600.672288
79	702	60	2124000.672288
79	722	61	2123400.756324
79	742	62	2122800.756324
79	750	63	2122200.756324
79	758	64	2121600.756324
79	766	65	2121000.756324
79	783	66	2120400.84036
79	803	67	2119800.84036
79	811	68	2119200.84036
79	819	69	2118600.84036
79	827	70	2118000.84036
79	847	71	2117400.924396
79	867	72	2116800.924396
79	875	73	2116200.924396
79	883	74	2115600.924396
79	891	75	2115000.924396
79	911	76	2114401.008432
79	931	77	2113801.008432
79	939	78	2113201.008432
79	947	79	2112601.008432
79	955	80	2112001.008432
79	975	81	2111401.092468
79	995	82	2110801.092468
79	1003	83	2110201.092468
79	1011	84	2109601.092468
79	1019	85	2109001.092468
79	1039	86	2108401.176504
79	1059	87	2107801.176504
79	1067	88	2107201.176504
79	1075	89	2106601.176504
79	1083	90	2106001.176504
79	1103	91	2105401.26054
79	1120	92	2104801.26054
79	1128	93	2104201.26054
79	1136	94	2103601.26054
79	1144	95	2103001.26054
79	1164	96	2102401.344576
79	1184	97	2101801.344576
79	1192	98	2101201.344576
79	1200	99	2100601.344576
79	1208	100	2100001.344576
79	1228	101	2099401.428612
79	1248	102	2098801.428612
79	1256	103	2098201.428612
79	1264	104	2097601.428612
79	1272	105	2097001.428612
79	1292	106	2096401.512648
79	1312	107	2095801.512648
79	1320	108	2095201.512648
79	1328	109	2094601.512648
79	1336	110	2094001.512648
79	1356	111	2093401.596684
79	1376	112	2092801.596684
79	1384	113	2092201.596684
79	1392	114	2091601.596684
79	1400	115	2091001.596684
79	1420	116	2090401.68072
79	1440	117	2089801.68072
79	1448	118	2089201.68072
79	1456	119	2088601.68072
79	1464	120	2088001.68072
79	1484	121	2087401.764756
79	1504	122	2086801.764756
79	1512	123	2086201.764756
79	1520	124	2085601.764756
79	1528	125	2085001.764756
79	1548	126	2084401.848792
79	1568	127	2083801.848792
79	1576	128	2083201.848792
79	1584	129	2082601.848792
79	1592	130	2082001.848792
79	1612	131	2081401.932828
79	1632	132	2080801.932828
79	1640	133	2080201.932828
79	1648	134	2079601.932828
79	1656	135	2079001.932828
79	1676	136	2078402.016864
79	1696	137	2077802.016864
79	1704	138	2077202.016864
79	1712	139	2076602.016864
79	1720	140	2076002.016864
79	1740	141	2075402.1009
79	1760	142	2074802.1009
79	1768	143	2074202.1009
79	1776	144	2073602.1009
79	1784	145	2073002.1009
79	1804	146	2072402.184936
79	1824	147	2071802.184936
79	1832	148	2071202.184936
79	1840	149	2070602.184936
79	1848	150	2070002.184936
79	1868	151	2069402.268972
79	1888	152	2068802.268972
79	1896	153	2068202.268972
79	1904	154	2067602.268972
79	1912	155	2067002.268972
79	1932	156	2066402.353008
79	1952	157	2065802.353008
79	1960	158	2065202.353008
79	1968	159	2064602.353008
79	1976	160	2064002.353008
79	1996	161	2063402.437044
79	2016	162	2062802.437044
79	2024	163	2062202.437044
79	2032	164	2061602.437044
79	2040	165	2061002.437044
79	2060	166	2060402.52108
79	2080	167	2059802.52108
79	2088	168	2059202.52108
79	2096	169	2058602.52108
79	2104	170	2058002.52108
79	2124	171	2057402.605116
79	2141	172	2056802.605116
79	2149	173	2056202.605116
79	2157	174	2055602.605116
79	2165	175	2055002.605116
79	2185	176	2054402.689152
79	2205	177	2053802.689152
79	2213	178	2053202.689152
79	2221	179	2052602.689152
79	2229	180	2052002.689152
79	2249	181	2051402.773188
79	2269	182	2050802.773188
79	2277	183	2050202.773188
79	2285	184	2049602.773188
79	2293	185	2049002.773188
79	2313	186	2048402.857224
79	2333	187	2047802.857224
79	2341	188	2047202.857224
79	2349	189	2046602.857224
79	2357	190	2046002.857224
79	2377	191	2045402.94126
79	2397	192	2044802.94126
79	2405	193	2044202.94126
79	2413	194	2043602.94126
79	2421	195	2043002.94126
79	2441	196	2042403.025296
79	2461	197	2041803.025296
79	2469	198	2041203.025296
79	2477	199	2040603.025296
79	2485	200	2040003.025296
79	2505	201	2039403.109332
79	2525	202	2038803.109332
79	2533	203	2038203.109332
79	2541	204	2037603.109332
79	2549	205	2037003.109332
79	2569	206	2036403.193368
79	2589	207	2035803.193368
79	2597	208	2035203.193368
79	2605	209	2034603.193368
79	2613	210	2034003.193368
79	2633	211	2033403.277404
79	2653	212	2032803.277404
79	2661	213	2032203.277404
79	2669	214	2031603.277404
79	2677	215	2031003.277404
79	2697	216	2030403.36144
79	2717	217	2029803.36144
79	2725	218	2029203.36144
79	2733	219	2028603.36144
79	2741	220	2028003.36144
79	2761	221	2027403.445476
79	2781	222	2026803.445476
79	2789	223	2026203.445476
79	2797	224	2025603.445476
79	2805	225	2025003.445476
79	2825	226	2024403.529512
79	2845	227	2023803.529512
79	2853	228	2023203.529512
79	2861	229	2022603.529512
79	2869	230	2022003.529512
79	2889	231	2021403.613548
79	2906	232	2020803.613548
79	2914	233	2020203.613548
79	2922	234	2019603.613548
79	2930	235	2019003.613548
79	2950	236	2018403.697584
79	2970	237	2017803.697584
79	2978	238	2017203.697584
79	2986	239	2016603.697584
79	2994	240	2016003.697584
79	3014	241	2015403.78162
79	3034	242	2014803.78162
79	3042	243	2014203.78162
79	3050	244	2013603.78162
79	3058	245	2013003.78162
79	3078	246	2012403.865656
79	3098	247	2011803.865656
79	3106	248	2011203.865656
79	3114	249	2010603.865656
79	3122	250	2010003.865656
79	3142	251	2009403.949692
79	3162	252	2008803.949692
79	3170	253	2008203.949692
79	3178	254	2007603.949692
79	3186	255	2007003.949692
79	3206	256	2006404.033728
79	3226	257	2005804.033728
79	3234	258	2005204.033728
79	3242	259	2004604.033728
79	3250	260	2004004.033728
79	3270	261	2003404.117764
79	3290	262	2002804.117764
79	3298	263	2002204.117764
79	3306	264	2001604.117764
79	3314	265	2001004.117764
79	3334	266	2000404.2018
79	3351	267	1999804.2018
79	3359	268	1999204.2018
79	3367	269	1998604.2018
79	3375	270	1998004.2018
79	3395	271	1997404.285836
79	3415	272	1996804.285836
79	3423	273	1996204.285836
79	3431	274	1995604.285836
79	3439	275	1995004.285836
79	3459	276	1994404.369872
79	3479	277	1993804.369872
79	3487	278	1993204.369872
79	3495	279	1992604.369872
79	3503	280	1992004.369872
79	3523	281	1991404.453908
79	3543	282	1990804.453908
79	3551	283	1990204.453908
79	3559	284	1989604.453908
79	3567	285	1989004.453908
79	3587	286	1988404.537944
79	3604	287	1987804.537944
79	3612	288	1987204.537944
79	3620	289	1986604.537944
79	3628	290	1986004.537944
79	3648	291	1985404.62198
79	3668	292	1984804.62198
79	3676	293	1984204.62198
79	3684	294	1983604.62198
79	3692	295	1983004.62198
79	3712	296	1982404.706016
79	3732	297	1981804.706016
79	3740	298	1981204.706016
79	3748	299	1980604.706016
79	3756	300	1980004.706016
79	3776	301	1979404.790052
79	3796	302	1978804.790052
79	3804	303	1978204.790052
79	3812	304	1977604.790052
79	3820	305	1977004.790052
79	3840	306	1976404.874088
79	3860	307	1975804.874088
79	3868	308	1975204.874088
79	3876	309	1974604.874088
79	3884	310	1974004.874088
79	3904	311	1973404.958124
79	3924	312	1972804.958124
79	3932	313	1972204.958124
79	3940	314	1971604.958124
79	3948	315	1971004.958124
79	3968	316	1970405.04216
79	3988	317	1969805.04216
79	3996	318	1969205.04216
79	4004	319	1968605.04216
79	4012	320	1968005.04216
79	4032	321	1967405.126196
79	4052	322	1966805.126196
79	4060	323	1966205.126196
79	4068	324	1965605.126196
79	4076	325	1965005.126196
79	4096	326	1964405.210232
79	4116	327	1963805.210232
79	4124	328	1963205.210232
79	4132	329	1962605.210232
79	4140	330	1962005.210232
79	4160	331	1961405.294268
79	4180	332	1960805.294268
79	4188	333	1960205.294268
79	4196	334	1959605.294268
79	4204	335	1959005.294268
79	4224	336	1958405.378304
79	4244	337	1957805.378304
79	4252	338	1957205.378304
79	4260	339	1956605.378304
79	4268	340	1956005.378304
79	4288	341	1955405.46234
79	4308	342	1954805.46234
79	4316	343	1954205.46234
79	4324	344	1953605.46234
79	4332	345	1953005.46234
79	4352	346	1952405.546376
79	4372	347	1951805.546376
79	4380	348	1951205.546376
79	4388	349	1950605.546376
79	4396	350	1950005.546376
79	4416	351	1949405.630412
79	4436	352	1948805.630412
79	4444	353	1948205.630412
79	4452	354	1947605.630412
79	4460	355	1947005.630412
79	4480	356	1946405.714448
79	4500	357	1945805.714448
79	4508	358	1945205.714448
79	4516	359	1944605.714448
79	4524	360	1944005.714448
79	4544	361	1943405.798484
79	4561	362	1942805.798484
79	4569	363	1942205.798484
79	4577	364	1941605.798484
79	4585	365	1941005.798484
79	4605	366	1940405.88252
79	4625	367	1939805.88252
79	4633	368	1939205.88252
79	4641	369	1938605.88252
79	4649	370	1938005.88252
79	4669	371	1937405.966556
79	4689	372	1936805.966556
79	4697	373	1936205.966556
79	4705	374	1935605.966556
79	4713	375	1935005.966556
79	4733	376	1934406.050592
79	4753	377	1933806.050592
79	4761	378	1933206.050592
79	4769	379	1932606.050592
79	4777	380	1932006.050592
79	4797	381	1931406.134628
79	4817	382	1930806.134628
79	4825	383	1930206.134628
79	4833	384	1929606.134628
79	4841	385	1929006.134628
79	4861	386	1928406.218664
79	4881	387	1927806.218664
79	4889	388	1927206.218664
79	4897	389	1926606.218664
79	4905	390	1926006.218664
79	4925	391	1925406.3027
79	4942	392	1924806.3027
79	4950	393	1924206.3027
79	4958	394	1923606.3027
79	4966	395	1923006.3027
79	4986	396	1922406.386736
79	5006	397	1921806.386736
79	5014	398	1921206.386736
79	5022	399	1920606.386736
79	5030	400	1920006.386736
79	5050	401	1919406.470772
79	5070	402	1918806.470772
79	5078	403	1918206.470772
79	5086	404	1917606.470772
79	5094	405	1917006.470772
79	5114	406	1916406.554808
79	5134	407	1915806.554808
79	5142	408	1915206.554808
79	5150	409	1914606.554808
79	5158	410	1914006.554808
79	5178	411	1913406.638844
79	5198	412	1912806.638844
79	5206	413	1912206.638844
79	5214	414	1911606.638844
79	5222	415	1911006.638844
79	5242	416	1910406.72288
79	5262	417	1909806.72288
79	5270	418	1909206.72288
79	5278	419	1908606.72288
79	5286	420	1908006.72288
79	5306	421	1907406.806916
79	5326	422	1906806.806916
79	5334	423	1906206.806916
79	5342	424	1905606.806916
79	5350	425	1905006.806916
79	5370	426	1904406.890952
79	5390	427	1903806.890952
79	5398	428	1903206.890952
79	5406	429	1902606.890952
79	5414	430	1902006.890952
79	5434	431	1901406.974988
79	5454	432	1900806.974988
79	5462	433	1900206.974988
79	5470	434	1899606.974988
79	5478	435	1899006.974988
79	5495	436	1898407.059024
79	5515	437	1897807.059024
79	5523	438	1897207.059024
79	5531	439	1896607.059024
79	5539	440	1896007.059024
79	5559	441	1895407.14306
79	5579	442	1894807.14306
79	5587	443	1894207.14306
79	5595	444	1893607.14306
79	5603	445	1893007.14306
79	5623	446	1892407.227096
79	5643	447	1891807.227096
79	5651	448	1891207.227096
79	5659	449	1890607.227096
79	5667	450	1890007.227096
79	5687	451	1889407.311132
79	5707	452	1888807.311132
79	5715	453	1888207.311132
79	5723	454	1887607.311132
79	5731	455	1887007.311132
79	5751	456	1886407.395168
79	5771	457	1885807.395168
79	5779	458	1885207.395168
79	5787	459	1884607.395168
79	5795	460	1884007.395168
79	5815	461	1883407.479204
79	5835	462	1882807.479204
79	5843	463	1882207.479204
79	5851	464	1881607.479204
79	5859	465	1881007.479204
79	5879	466	1880407.56324
79	5899	467	1879807.56324
79	5907	468	1879207.56324
79	5915	469	1878607.56324
79	5923	470	1878007.56324
79	5943	471	1877407.647276
79	5963	472	1876807.647276
79	5971	473	1876207.647276
79	5979	474	1875607.647276
79	5987	475	1875007.647276
79	6007	476	1874407.731312
79	6027	477	1873807.731312
79	6035	478	1873207.731312
79	6043	479	1872607.731312
79	6051	480	1872007.731312
79	6071	481	1871407.815348
79	6091	482	1870807.815348
79	6099	483	1870207.815348
79	6107	484	1869607.815348
79	6115	485	1869007.815348
79	6135	486	1868407.899384
79	6155	487	1867807.899384
79	6163	488	1867207.899384
79	6171	489	1866607.899384
79	6179	490	1866007.899384
79	6199	491	1865407.98342
79	6219	492	1864807.98342
79	6227	493	1864207.98342
79	6235	494	1863607.98342
79	6243	495	1863007.98342
79	6263	496	1862408.067456
79	6283	497	1861808.067456
79	6291	498	1861208.067456
79	6299	499	1860608.067456
79	6307	500	1860008.067456
79	6324	501	1859408.151492
79	6344	502	1858808.151492
79	6352	503	1858208.151492
79	6360	504	1857608.151492
79	6368	505	1857008.151492
79	6388	506	1856408.235528
79	6408	507	1855808.235528
79	6416	508	1855208.235528
79	6424	509	1854608.235528
79	6432	510	1854008.235528
79	6452	511	1853408.319564
79	6472	512	1852808.319564
79	6480	513	1852208.319564
79	6488	514	1851608.319564
79	6496	515	1851008.319564
79	6516	516	1850408.4036
79	6533	517	1849808.4036
79	6541	518	1849208.4036
79	6549	519	1848608.4036
79	6557	520	1848008.4036
79	6577	521	1847408.487636