version 2
run TwoNodes-1-20160329-21:08:02-15766
attr configname TwoNodes
attr datetime 20160329-21:08:02
attr experiment TwoNodes
attr inifile omnetpp.ini
attr iterationvars $0=0
attr iterationvars2 "$0=0, $repetition=1"
attr measurement $0=0
attr network P2P_Wireless_Wifi
attr processid 15766
attr repetition 1
attr replication #1
attr resultdir results
attr runnumber 1
attr seedset 0

vector 16  P2P_Wireless_Wifi.node[0].batteryStats  capacity  ETV
attr unit  mW-s
vector 23  P2P_Wireless_Wifi.node[1].batteryStats  capacity  ETV
attr unit  mW-s
16	0	0	2160000
16	0	0	2160000
16	13	1	2159400
16	33	2	2158800
16	41	3	2158200
16	49	4	2157600
16	57	5	2157000
16	65	6	2156400
16	85	7	2155800
16	93	8	2155200
16	101	9	2154600
16	109	10	2154000
16	117	11	2153400
16	149	12	2152800.084036
16	157	13	2152200.084036
16	165	14	2151600.084036
16	173	15	2151000.084036
16	181	16	2150400.084036
16	213	17	2149800.168072
16	221	18	2149200.168072
16	229	19	2148600.168072
16	237	20	2148000.168072
16	245	21	2147400.168072
16	277	22	2146800.252108
16	285	23	2146200.252108
16	293	24	2145600.252108
16	301	25	2145000.252108
16	309	26	2144400.252108
16	341	27	2143800.336144
16	349	28	2143200.336144
16	357	29	2142600.336144
16	365	30	2142000.336144
16	373	31	2141400.336144
16	405	32	2140800.42018
16	413	33	2140200.42018
16	421	34	2139600.42018
16	429	35	2139000.42018
16	437	36	2138400.42018
16	469	37	2137800.504216
16	477	38	2137200.504216
16	485	39	2136600.504216
16	493	40	2136000.504216
16	501	41	2135400.504216
16	533	42	2134800.588252
16	541	43	2134200.588252
16	549	44	2133600.588252
16	557	45	2133000.588252
16	565	46	2132400.588252
16	597	47	2131800.672288
16	605	48	2131200.672288
16	613	49	2130600.672288
16	621	50	2130000.672288
16	629	51	2129400.672288
16	661	52	2128800.756324
16	669	53	2128200.756324
16	677	54	2127600.756324
16	685	55	2127000.756324
16	693	56	2126400.756324
16	722	57	2125800.84036
16	730	58	2125200.84036
16	738	59	2124600.84036
16	746	60	2124000.84036
16	754	61	2123400.84036
16	786	62	2122800.924396
16	794	63	2122200.924396
16	802	64	2121600.924396
16	810	65	2121000.924396
16	818	66	2120400.924396
16	850	67	2119801.008432
16	858	68	2119201.008432
16	866	69	2118601.008432
16	874	70	2118001.008432
16	882	71	2117401.008432
16	914	72	2116801.092468
16	922	73	2116201.092468
16	930	74	2115601.092468
16	938	75	2115001.092468
16	946	76	2114401.092468
16	978	77	2113801.176504
16	986	78	2113201.176504
16	994	79	2112601.176504
16	1002	80	2112001.176504
16	1010	81	2111401.176504
16	1042	82	2110801.26054
16	1050	83	2110201.26054
16	1058	84	2109601.26054
16	1066	85	2109001.26054
16	1074	86	2108401.26054
16	1103	87	2107801.344576
16	1111	88	2107201.344576
16	1119	89	2106601.344576
16	1127	90	2106001.344576
16	1135	91	2105401.344576
16	1167	92	2104801.428612
16	1175	93	2104201.428612
16	1183	94	2103601.428612
16	1191	95	2103001.428612
16	1199	96	2102401.428612
16	1228	97	2101801.512648
16	1236	98	2101201.512648
16	1244	99	2100601.512648
16	1252	100	2100001.512648
16	1260	101	2099401.512648
16	1292	102	2098801.596684
16	1300	103	2098201.596684
16	1308	104	2097601.596684
16	1316	105	2097001.596684
16	1324	106	2096401.596684
16	1356	107	2095801.68072
16	1364	108	2095201.68072
16	1372	109	2094601.68072
16	1380	110	2094001.68072
16	1388	111	2093401.68072
16	1420	112	2092801.764756
16	1428	113	2092201.764756
16	1436	114	2091601.764756
16	1444	115	2091001.764756
16	1452	116	2090401.764756
16	1484	117	2089801.848792
16	1492	118	2089201.848792
16	1500	119	2088601.848792
16	1508	120	2088001.848792
16	1516	121	2087401.848792
16	1548	122	2086801.932828
16	1556	123	2086201.932828
16	1564	124	2085601.932828
16	1572	125	2085001.932828
16	1580	126	2084401.932828
16	1609	127	2083802.016864
16	1617	128	2083202.016864
16	1625	129	2082602.016864
16	1633	130	2082002.016864
16	1641	131	2081402.016864
16	1670	132	2080802.1009
16	1678	133	2080202.1009
16	1686	134	2079602.1009
16	1694	135	2079002.1009
16	1702	136	2078402.1009
16	1734	137	2077802.184936
16	1742	138	2077202.184936
16	1750	139	2076602.184936
16	1758	140	2076002.184936
16	1766	141	2075402.184936
16	1798	142	2074802.268972
16	1806	143	2074202.268972
16	1814	144	2073602.268972
16	1822	145	2073002.268972
16	1830	146	2072402.268972
16	1862	147	2071802.353008
16	1870	148	2071202.353008
16	1878	149	2070602.353008
16	1886	150	2070002.353008
16	1894	151	2069402.353008
16	1926	152	2068802.437044
16	1934	153	2068202.437044
16	1942	154	2067602.437044
16	1950	155	2067002.437044
16	1958	156	2066402.437044
16	1990	157	2065802.52108
16	1998	158	2065202.52108
16	2006	159	2064602.52108
16	2014	160	2064002.52108
16	2022	161	2063402.52108
16	2054	162	2062802.605116
16	2062	163	2062202.605116
16	2070	164	2061602.605116
16	2078	165	2061002.605116
16	2086	166	2060402.605116
16	2118	167	2059802.689152
16	2126	168	2059202.689152
16	2134	169	2058602.689152
16	2142	170	2058002.689152
16	2150	171	2057402.689152
16	2182	172	2056802.773188
16	2190	173	2056202.773188
16	2198	174	2055602.773188
16	2206	175	2055002.773188
16	2214	176	2054402.773188
16	2246	177	2053802.857224
16	2254	178	2053202.857224
16	2262	179	2052602.857224
16	2270	180	2052002.857224
16	2278	181	2051402.857224
16	2310	182	2050802.94126
16	2318	183	2050202.94126
16	2326	184	2049602.94126
16	2334	185	2049002.94126
16	2342	186	2048402.94126
16	2374	187	2047803.025296
16	2382	188	2047203.025296
16	2390	189	2046603.025296
16	2398	190	2046003.025296
16	2406	191	2045403.025296
16	2438	192	2044803.109332
16	2446	193	2044203.109332
16	2454	194	2043603.109332
16	2462	195	2043003.109332
16	2470	196	2042403.109332
16	2499	197	2041803.193368
16	2507	198	2041203.193368
16	2515	199	2040603.193368
16	2523	200	2040003.193368
16	2531	201	2039403.193368
16	2563	202	2038803.277404
16	2571	203	2038203.277404
16	2579	204	2037603.277404
16	2587	205	2037003.277404
16	2595	206	2036403.277404
16	2627	207	2035803.36144
16	2635	208	2035203.36144
16	2643	209	2034603.36144
16	2651	210	2034003.36144
16	2659	211	2033403.36144
16	2691	212	2032803.445476
16	2699	213	2032203.445476
16	2707	214	2031603.445476
16	2715	215	2031003.445476
16	2723	216	2030403.445476
16	2755	217	2029803.529512
16	2763	218	2029203.529512
16	2771	219	2028603.529512
16	2779	220	2028003.529512
16	2787	221	2027403.529512
16	2819	222	2026803.613548
16	2827	223	2026203.613548
16	2835	224	2025603.613548
16	2843	225	2025003.613548
16	2851	226	2024403.613548
16	2883	227	2023803.697584
16	2891	228	2023203.697584
16	2899	229	2022603.697584
16	2907	230	2022003.697584
16	2915	231	2021403.697584
16	2947	232	2020803.78162
16	2955	233	2020203.78162
16	2963	234	2019603.78162
16	2971	235	2019003.78162
16	2979	236	2018403.78162
16	3011	237	2017803.865656
16	3019	238	2017203.865656
16	3027	239	2016603.865656
16	3035	240	2016003.865656
16	3043	241	2015403.865656
16	3075	242	2014803.949692
16	3083	243	2014203.949692
16	3091	244	2013603.949692
16	3099	245	2013003.949692
16	3107	246	2012403.949692
16	3139	247	2011804.033728
16	3147	248	2011204.033728
16	3155	249	2010604.033728
16	3163	250	2010004.033728
16	3171	251	2009404.033728
16	3203	252	2008804.117764
16	3211	253	2008204.117764
16	3219	254	2007604.117764
16	3227	255	2007004.117764
16	3235	256	2006404.117764
16	3267	257	2005804.2018
16	3275	258	2005204.2018
16	3283	259	2004604.2018
16	3291	260	2004004.2018
16	3299	261	2003404.2018
16	3331	262	2002804.285836
16	3339	263	2002204.285836
16	3347	264	2001604.285836
16	3355	265	2001004.285836
16	3363	266	2000404.285836
16	3395	267	1999804.369872
16	3403	268	1999204.369872
16	3411	269	1998604.369872
16	3419	270	1998004.369872
16	3427	271	1997404.369872
16	3459	272	1996804.453908
16	3467	273	1996204.453908
16	3475	274	1995604.453908
16	3483	275	1995004.453908
16	3491	276	1994404.453908
16	3523	277	1993804.537944
16	3531	278	1993204.537944
16	3539	279	1992604.537944
16	3547	280	1992004.537944
16	3555	281	1991404.537944
16	3587	282	1990804.62198
16	3595	283	1990204.62198
16	3603	284	1989604.62198
16	3611	285	1989004.62198
16	3619	286	1988404.62198
16	3648	287	1987804.706016
16	3656	288	1987204.706016
16	3664	289	1986604.706016
16	3672	290	1986004.706016
16	3680	291	1985404.706016
16	3712	292	1984804.790052
16	3720	293	1984204.790052
16	3728	294	1983604.790052
16	3736	295	1983004.790052
16	3744	296	1982404.790052
16	3773	297	1981804.874088
16	3781	298	1981204.874088
16	3789	299	1980604.874088
16	3797	300	1980004.874088
16	3805	301	1979404.874088
16	3837	302	1978804.958124
16	3845	303	1978204.958124
16	3853	304	1977604.958124
16	3861	305	1977004.958124
16	3869	306	1976404.958124
16	3901	307	1975805.04216
16	3909	308	1975205.04216
16	3917	309	1974605.04216
16	3925	310	1974005.04216
16	3933	311	1973405.04216
16	3965	312	1972805.126196
16	3973	313	1972205.126196
16	3981	314	1971605.126196
16	3989	315	1971005.126196
16	3997	316	1970405.126196
16	4029	317	1969805.210232
16	4037	318	1969205.210232
16	4045	319	1968605.210232
16	4053	320	1968005.210232
16	4061	321	1967405.210232
16	4093	322	1966805.294268
16	4101	323	1966205.294268
16	4109	324	1965605.294268
16	4117	325	1965005.294268
16	4125	326	1964405.294268
16	4157	327	1963805.378304
16	4165	328	1963205.378304
16	4173	329	1962605.378304
16	4181	330	1962005.378304
16	4189	331	1961405.378304
16	4221	332	1960805.46234
16	4229	333	1960205.46234
16	4237	334	1959605.46234
16	4245	335	1959005.46234
16	4253	336	1958405.46234
16	4282	337	1957805.546376
16	4290	338	1957205.546376
16	4298	339	1956605.546376
16	4306	340	1956005.546376
16	4314	341	1955405.546376
16	4346	342	1954805.630412
16	4354	343	1954205.630412
16	4362	344	1953605.630412
16	4370	345	1953005.630412
16	4378	346	1952405.630412
16	4410	347	1951805.714448
16	4418	348	1951205.714448
16	4426	349	1950605.714448
16	4434	350	1950005.714448
16	4442	351	1949405.714448
16	4474	352	1948805.798484
16	4482	353	1948205.798484
16	4490	354	1947605.798484
16	4498	355	1947005.798484
16	4506	356	1946405.798484
16	4538	357	1945805.88252
16	4546	358	1945205.88252
16	4554	359	1944605.88252
16	4562	360	1944005.88252
16	4570	361	1943405.88252
16	4602	362	1942805.966556
16	4610	363	1942205.966556
16	4618	364	1941605.966556
16	4626	365	1941005.966556
16	4634	366	1940405.966556
16	4666	367	1939806.050592
16	4674	368	1939206.050592
16	4682	369	1938606.050592
16	4690	370	1938006.050592
16	4698	371	1937406.050592
16	4730	372	1936806.134628
16	4738	373	1936206.134628
16	4746	374	1935606.134628
16	4754	375	1935006.134628
16	4762	376	1934406.134628
16	4794	377	1933806.218664
16	4802	378	1933206.218664
16	4810	379	1932606.218664
16	4818	380	1932006.218664
16	4826	381	1931406.218664
16	4858	382	1930806.3027
16	4866	383	1930206.3027
16	4874	384	1929606.3027
16	4882	385	1929006.3027
16	4890	386	1928406.3027
16	4922	387	1927806.386736
16	4930	388	1927206.386736
16	4938	389	1926606.386736
16	4946	390	1926006.386736
16	4954	391	1925406.386736
16	4986	392	1924806.470772
16	4994	393	1924206.470772
16	5002	394	1923606.470772
16	5010	395	1923006.470772
16	5018	396	1922406.470772
16	5050	397	1921806.554808
16	5058	398	1921206.554808
16	5066	399	1920606.554808
16	5074	400	1920006.554808
16	5082	401	1919406.554808
16	5114	402	1918806.638844
16	5122	403	1918206.638844
16	5130	404	1917606.638844
16	5138	405	1917006.638844
16	5146	406	1916406.638844
16	5178	407	1915806.72288
16	5186	408	1915206.72288
16	5194	409	1914606.72288
16	5202	410	1914006.72288
16	5210	411	1913406.72288
16	5242	412	1912806.806916
16	5250	413	1912206.806916
16	5258	414	1911606.806916
16	5266	415	1911006.806916
16	5274	416	1910406.806916
16	5306	417	1909806.890952
16	5314	418	1909206.890952
16	5322	419	1908606.890952
16	5330	420	1908006.890952
16	5338	421	1907406.890952
16	5370	422	1906806.974988
16	5378	423	1906206.974988
16	5386	424	1905606.974988
16	5394	425	1905006.974988
16	5402	426	1904406.974988
16	5431	427	1903807.059024
16	5439	428	1903207.059024
16	5447	429	1902607.059024
16	5455	430	1902007.059024
16	5463	431	1901407.059024
16	5492	432	1900807.14306
16	5500	433	1900207.14306
16	5508	434	1899607.14306
16	5516	435	1899007.14306
16	5524	436	1898407.14306
16	5556	437	1897807.227096
16	5564	438	1897207.227096
16	5572	439	1896607.227096
16	5580	440	1896007.227096
16	5588	441	1895407.227096
16	5620	442	1894807.311132
16	5628	443	1894207.311132
16	5636	444	1893607.311132
16	5644	445	1893007.311132
16	5652	446	1892407.311132
16	5684	447	1891807.395168
16	5692	448	1891207.395168
16	5700	449	1890607.395168
16	5708	450	1890007.395168
16	5716	451	1889407.395168
16	5748	452	1888807.479204
16	5756	453	1888207.479204
16	5764	454	1887607.479204
16	5772	455	1887007.479204
16	5780	456	1886407.479204
16	5812	457	1885807.56324
16	5820	458	1885207.56324
16	5828	459	1884607.56324
16	5836	460	1884007.56324
16	5844	461	1883407.56324
16	5876	462	1882807.647276
16	5884	463	1882207.647276
16	5892	464	1881607.647276
16	5900	465	1881007.647276
16	5908	466	1880407.647276
16	5940	467	1879807.731312
16	5948	468	1879207.731312
16	5956	469	1878607.731312
16	5964	470	1878007.731312
16	5972	471	1877407.731312
16	6004	472	1876807.815348
16	6012	473	1876207.815348
16	6020	474	1875607.815348
16	6028	475	1875007.815348
16	6036	476	1874407.815348
16	6068	477	1873807.899384
16	6076	478	1873207.899384
16	6084	479	1872607.899384
16	6092	480	1872007.899384
16	6100	481	1871407.899384
16	6132	482	1870807.98342
16	6140	483	1870207.98342
16	6148	484	1869607.98342
16	6156	485	1869007.98342
16	6164	486	1868407.98342
16	6196	487	1867808.067456
16	6204	488	1867208.067456
16	6212	489	1866608.067456
16	6220	490	1866008.067456
16	6228	491	1865408.067456
16	6260	492	1864808.151492
16	6268	493	1864208.151492
16	6276	494	1863608.151492
16	6284	495	1863008.151492
16	6292	496	1862408.151492
16	6324	497	1861808.235528
16	6332	498	1861208.235528
16	6340	499	1860608.235528
16	6348	500	1860008.235528
16	6356	501	1859408.235528
16	6388	502	1858808.319564
16	6396	503	1858208.319564
16	6404	504	1857608.319564
16	6412	505	1857008.319564
16	6420	506	1856408.319564
16	6452	507	1855808.4036
16	6460	508	1855208.4036
16	6468	509	1854608.4036
16	6476	510	1854008.4036
16	6484	511	1853408.4036
16	6513	512	1852808.487636
16	6521	513	1852208.487636
16	6529	514	1851608.487636
16	6537	515	1851008.487636
16	6545	516	1850408.487636
16	6577	517	1849808.571672
16	6585	518	1849208.571672
16	6593	519	1848608.571672
16	6601	520	1848008.571672
16	6609	521	1847408.571672
16	6641	522	1846808.655708
16	6649	523	1846208.655708
16	6657	524	1845608.655708
16	6665	525	1845008.655708
16	6673	526	1844408.655708
16	6705	527	1843808.739744
16	6713	528	1843208.739744
16	6721	529	1842608.739744
16	6729	530	1842008.739744
16	6737	531	1841408.739744
16	6769	532	1840808.82378
16	6777	533	1840208.82378
16	6785	534	1839608.82378
16	6793	535	1839008.82378
16	6801	536	1838408.82378
16	6833	537	1837808.907816
16	6841	538	1837208.907816
16	6849	539	1836608.907816
16	6857	540	1836008.907816
16	6865	541	1835408.907816
16	6897	542	1834808.991852
16	6905	543	1834208.991852
16	6913	544	1833608.991852
16	6921	545	1833008.991852
16	6929	546	1832408.991852
16	6961	547	1831809.075888
16	6969	548	1831209.075888
16	6977	549	1830609.075888
16	6985	550	1830009.075888
16	6993	551	1829409.075888
16	7025	552	1828809.159924
16	7033	553	1828209.159924
16	7041	554	1827609.159924
16	7049	555	1827009.159924
16	7057	556	1826409.159924
16	7089	557	1825809.24396
16	7097	558	1825209.24396
16	7105	559	1824609.24396
16	7113	560	1824009.24396
16	7121	561	1823409.24396
16	7153	562	1822809.327996
16	7161	563	1822209.327996
16	7169	564	1821609.327996
16	7177	565	1821009.327996
16	7185	566	1820409.327996
16	7217	567	1819809.412032
16	7225	568	1819209.412032
16	7233	569	1818609.412032
16	7241	570	1818009.412032
16	7249	571	1817409.412032
16	7281	572	1816809.496068
16	7289	573	1816209.496068
16	7297	574	1815609.496068
16	7305	575	1815009.496068
16	7313	576	1814409.496068
16	7345	577	1813809.580104
16	7353	578	1813209.580104
16	7361	579	1812609.580104
16	7369	580	1812009.580104
16	7377	581	1811409.580104
16	7406	582	1810809.66414
16	7414	583	1810209.66414
16	7422	584	1809609.66414
16	7430	585	1809009.66414
16	7438	586	1808409.66414
16	7470	587	1807809.748176
16	7478	588	1807209.748176
16	7486	589	1806609.748176
16	7494	590	1806009.748176
16	7502	591	1805409.748176
16	7534	592	1804809.832212
16	7542	593	1804209.832212
16	7550	594	1803609.832212
16	7558	595	1803009.832212
16	7566	596	1802409.832212
16	7598	597	1801809.916248
16	7606	598	1801209.916248
16	7614	599	1800609.916248
23	0	0	2160000
23	0	0	2160000
23	14	1	2159400
23	34	2	2158800.084036
23	42	3	2158200.084036
23	50	4	2157600.084036
23	58	5	2157000.084036
23	66	6	2156400.084036
23	86	7	2155800.168072
23	94	8	2155200.168072
23	102	9	2154600.168072
23	110	10	2154000.168072
23	118	11	2153400.168072
23	150	12	2152800.252108
23	158	13	2152200.252108
23	166	14	2151600.252108
23	174	15	2151000.252108
23	182	16	2150400.252108
23	214	17	2149800.336144
23	222	18	2149200.336144
23	230	19	2148600.336144
23	238	20	2148000.336144
23	246	21	2147400.336144
23	278	22	2146800.42018
23	286	23	2146200.42018
23	294	24	2145600.42018
23	302	25	2145000.42018
23	310	26	2144400.42018
23	342	27	2143800.504216
23	350	28	2143200.504216
23	358	29	2142600.504216
23	366	30	2142000.504216
23	374	31	2141400.504216
23	406	32	2140800.588252
23	414	33	2140200.588252
23	422	34	2139600.588252
23	430	35	2139000.588252
23	438	36	2138400.588252
23	470	37	2137800.672288
23	478	38	2137200.672288
23	486	39	2136600.672288
23	494	40	2136000.672288
23	502	41	2135400.672288
23	534	42	2134800.756324
23	542	43	2134200.756324
23	550	44	2133600.756324
23	558	45	2133000.756324
23	566	46	2132400.756324
23	598	47	2131800.84036
23	606	48	2131200.84036
23	614	49	2130600.84036
23	622	50	2130000.84036
23	630	51	2129400.84036
23	662	52	2128800.924396
23	670	53	2128200.924396
23	678	54	2127600.924396
23	686	55	2127000.924396
23	694	56	2126400.924396
23	723	57	2125801.008432
23	731	58	2125201.008432
23	739	59	2124601.008432
23	747	60	2124001.008432
23	755	61	2123401.008432
23	787	62	2122801.092468
23	795	63	2122201.092468
23	803	64	2121601.092468
23	811	65	2121001.092468
23	819	66	2120401.092468
23	851	67	2119801.176504
23	859	68	2119201.176504
23	867	69	2118601.176504
23	875	70	2118001.176504
23	883	71	2117401.176504
23	915	72	2116801.26054
23	923	73	2116201.26054
23	931	74	2115601.26054
23	939	75	2115001.26054
23	947	76	2114401.26054
23	979	77	2113801.344576
23	987	78	2113201.344576
23	995	79	2112601.344576
23	1003	80	2112001.344576
23	1011	81	2111401.344576
23	1043	82	2110801.428612
23	1051	83	2110201.428612
23	1059	84	2109601.428612
23	1067	85	2109001.428612
23	1075	86	2108401.428612
23	1104	87	2107801.512648
23	1112	88	2107201.512648
23	1120	89	2106601.512648
23	1128	90	2106001.512648
23	1136	91	2105401.512648
23	1168	92	2104801.596684
23	1176	93	2104201.596684
23	1184	94	2103601.596684
23	1192	95	2103001.596684
23	1200	96	2102401.596684
23	1229	97	2101801.68072
23	1237	98	2101201.68072
23	1245	99	2100601.68072
23	1253	100	2100001.68072
23	1261	101	2099401.68072
23	1293	102	2098801.764756
23	1301	103	2098201.764756
23	1309	104	2097601.764756
23	1317	105	2097001.764756
23	1325	106	2096401.764756
23	1357	107	2095801.848792
23	1365	108	2095201.848792
23	1373	109	2094601.848792
23	1381	110	2094001.848792
23	1389	111	2093401.848792
23	1421	112	2092801.932828
23	1429	113	2092201.932828
23	1437	114	2091601.932828
23	1445	115	2091001.932828
23	1453	116	2090401.932828
23	1485	117	2089802.016864
23	1493	118	2089202.016864
23	1501	119	2088602.016864
23	1509	120	2088002.016864
23	1517	121	2087402.016864
23	1549	122	2086802.1009
23	1557	123	2086202.1009
23	1565	124	2085602.1009
23	1573	125	2085002.1009
23	1581	126	2084402.1009
23	1610	127	2083802.184936
23	1618	128	2083202.184936
23	1626	129	2082602.184936
23	1634	130	2082002.184936
23	1642	131	2081402.184936
23	1671	132	2080802.268972
23	1679	133	2080202.268972
23	1687	134	2079602.268972
23	1695	135	2079002.268972
23	1703	136	2078402.268972
23	1735	137	2077802.353008
23	1743	138	2077202.353008
23	1751	139	2076602.353008
23	1759	140	2076002.353008
23	1767	141	2075402.353008
23	1799	142	2074802.437044
23	1807	143	2074202.437044
23	1815	144	2073602.437044
23	1823	145	2073002.437044
23	1831	146	2072402.437044
23	1863	147	2071802.52108
23	1871	148	2071202.52108
23	1879	149	2070602.52108
23	1887	150	2070002.52108
23	1895	151	2069402.52108
23	1927	152	2068802.605116
23	1935	153	2068202.605116
23	1943	154	2067602.605116
23	1951	155	2067002.605116
23	1959	156	2066402.605116
23	1991	157	2065802.689152
23	1999	158	2065202.689152
23	2007	159	2064602.689152
23	2015	160	2064002.689152
23	2023	161	2063402.689152
23	2055	162	2062802.773188
23	2063	163	2062202.773188
23	2071	164	2061602.773188
23	2079	165	2061002.773188
23	2087	166	2060402.773188
23	2119	167	2059802.857224
23	2127	168	2059202.857224
23	2135	169	2058602.857224
23	2143	170	2058002.857224
23	2151	171	2057402.857224
23	2183	172	2056802.94126
23	2191	173	2056202.94126
23	2199	174	2055602.94126
23	2207	175	2055002.94126
23	2215	176	2054402.94126
23	2247	177	2053803.025296
23	2255	178	2053203.025296
23	2263	179	2052603.025296
23	2271	180	2052003.025296
23	2279	181	2051403.025296
23	2311	182	2050803.109332
23	2319	183	2050203.109332
23	2327	184	2049603.109332
23	2335	185	2049003.109332
23	2343	186	2048403.109332
23	2375	187	2047803.193368
23	2383	188	2047203.193368
23	2391	189	2046603.193368
23	2399	190	2046003.193368
23	2407	191	2045403.193368
23	2439	192	2044803.277404
23	2447	193	2044203.277404
23	2455	194	2043603.277404
23	2463	195	2043003.277404
23	2471	196	2042403.277404
23	2500	197	2041803.36144
23	2508	198	2041203.36144
23	2516	199	2040603.36144
23	2524	200	2040003.36144
23	2532	201	2039403.36144
23	2564	202	2038803.445476
23	2572	203	2038203.445476
23	2580	204	2037603.445476
23	2588	205	2037003.445476
23	2596	206	2036403.445476
23	2628	207	2035803.529512
23	2636	208	2035203.529512
23	2644	209	2034603.529512
23	2652	210	2034003.529512
23	2660	211	2033403.529512
23	2692	212	2032803.613548
23	2700	213	2032203.613548
23	2708	214	2031603.613548
23	2716	215	2031003.613548
23	2724	216	2030403.613548
23	2756	217	2029803.697584
23	2764	218	2029203.697584
23	2772	219	2028603.697584
23	2780	220	2028003.697584
23	2788	221	2027403.697584
23	2820	222	2026803.78162
23	2828	223	2026203.78162
23	2836	224	2025603.78162
23	2844	225	2025003.78162
23	2852	226	2024403.78162
23	2884	227	2023803.865656
23	2892	228	2023203.865656
23	2900	229	2022603.865656
23	2908	230	2022003.865656
23	2916	231	2021403.865656
23	2948	232	2020803.949692
23	2956	233	2020203.949692
23	2964	234	2019603.949692
23	2972	235	2019003.949692
23	2980	236	2018403.949692
23	3012	237	2017804.033728
23	3020	238	2017204.033728
23	3028	239	2016604.033728
23	3036	240	2016004.033728
23	3044	241	2015404.033728
23	3076	242	2014804.117764
23	3084	243	2014204.117764
23	3092	244	2013604.117764
23	3100	245	2013004.117764
23	3108	246	2012404.117764
23	3140	247	2011804.2018
23	3148	248	2011204.2018
23	3156	249	2010604.2018
23	3164	250	2010004.2018
23	3172	251	2009404.2018
23	3204	252	2008804.285836
23	3212	253	2008204.285836
23	3220	254	2007604.285836
23	3228	255	2007004.285836
23	3236	256	2006404.285836
23	3268	257	2005804.369872
23	3276	258	2005204.369872
23	3284	259	2004604.369872
23	3292	260	2004004.369872
23	3300	261	2003404.369872
23	3332	262	2002804.453908
23	3340	263	2002204.453908
23	3348	264	2001604.453908
23	3356	265	2001004.453908
23	3364	266	2000404.453908
23	3396	267	1999804.537944
23	3404	268	1999204.537944
23	3412	269	1998604.537944
23	3420	270	1998004.537944
23	3428	271	1997404.537944
23	3460	272	1996804.62198
23	3468	273	1996204.62198
23	3476	274	1995604.62198
23	3484	275	1995004.62198
23	3492	276	1994404.62198
23	3524	277	1993804.706016
23	3532	278	1993204.706016
23	3540	279	1992604.706016
23	3548	280	1992004.706016
23	3556	281	1991404.706016
23	3588	282	1990804.790052
23	3596	283	1990204.790052
23	3604	284	1989604.790052
23	3612	285	1989004.790052
23	3620	286	1988404.790052
23	3649	287	1987804.874088
23	3657	288	1987204.874088
23	3665	289	1986604.874088
23	3673	290	1986004.874088
23	3681	291	1985404.874088
23	3713	292	1984804.958124
23	3721	293	1984204.958124
23	3729	294	1983604.958124
23	3737	295	1983004.958124
23	3745	296	1982404.958124
23	3774	297	1981805.04216
23	3782	298	1981205.04216
23	3790	299	1980605.04216
23	3798	300	1980005.04216
23	3806	301	1979405.04216
23	3838	302	1978805.126196
23	3846	303	1978205.126196
23	3854	304	1977605.126196
23	3862	305	1977005.126196
23	3870	306	1976405.126196
23	3902	307	1975805.210232
23	3910	308	1975205.210232
23	3918	309	1974605.210232
23	3926	310	1974005.210232
23	3934	311	1973405.210232
23	3966	312	1972805.294268
23	3974	313	1972205.294268
23	3982	314	1971605.294268
23	3990	315	1971005.294268
23	3998	316	1970405.294268
23	4030	317	1969805.378304
23	4038	318	1969205.378304
23	4046	319	1968605.378304
23	4054	320	1968005.378304
23	4062	321	1967405.378304
23	4094	322	1966805.46234
23	4102	323	1966205.46234
23	4110	324	1965605.46234
23	4118	325	1965005.46234
23	4126	326	1964405.46234
23	4158	327	1963805.546376
23	4166	328	1963205.546376
23	4174	329	1962605.546376
23	4182	330	1962005.546376
23	4190	331	1961405.546376
23	4222	332	1960805.630412
23	4230	333	1960205.630412
23	4238	334	1959605.630412
23	4246	335	1959005.630412
23	4254	336	1958405.630412
23	4283	337	1957805.714448
23	4291	338	1957205.714448
23	4299	339	1956605.714448
23	4307	340	1956005.714448
23	4315	341	1955405.714448
23	4347	342	1954805.798484
23	4355	343	1954205.798484
23	4363	344	1953605.798484
23	4371	345	1953005.798484
23	4379	346	1952405.798484
23	4411	347	1951805.88252
23	4419	348	1951205.88252
23	4427	349	1950605.88252
23	4435	350	1950005.88252
23	4443	351	1949405.88252
23	4475	352	1948805.966556
23	4483	353	1948205.966556
23	4491	354	1947605.966556
23	4499	355	1947005.966556
23	4507	356	1946405.966556
23	4539	357	1945806.050592
23	4547	358	1945206.050592
23	4555	359	1944606.050592
23	4563	360	1944006.050592
23	4571	361	1943406.050592
23	4603	362	1942806.134628
23	4611	363	1942206.134628
23	4619	364	1941606.134628
23	4627	365	1941006.134628
23	4635	366	1940406.134628
23	4667	367	1939806.218664
23	4675	368	1939206.218664
23	4683	369	1938606.218664
23	4691	370	1938006.218664
23	4699	371	1937406.218664
23	4731	372	1936806.3027
23	4739	373	1936206.3027
23	4747	374	1935606.3027
23	4755	375	1935006.3027
23	4763	376	1934406.3027
23	4795	377	1933806.386736
23	4803	378	1933206.386736
23	4811	379	1932606.386736
23	4819	380	1932006.386736
23	4827	381	1931406.386736
23	4859	382	1930806.470772
23	4867	383	1930206.470772
23	4875	384	1929606.470772
23	4883	385	1929006.470772
23	4891	386	1928406.470772
23	4923	387	1927806.554808
23	4931	388	1927206.554808
23	4939	389	1926606.554808
23	4947	390	1926006.554808
23	4955	391	1925406.554808
23	4987	392	1924806.638844
23	4995	393	1924206.638844
23	5003	394	1923606.638844
23	5011	395	1923006.638844
23	5019	396	1922406.638844
23	5051	397	1921806.72288
23	5059	398	1921206.72288
23	5067	399	1920606.72288
23	5075	400	1920006.72288
23	5083	401	1919406.72288
23	5115	402	1918806.806916
23	5123	403	1918206.806916
23	5131	404	1917606.806916
23	5139	405	1917006.806916
23	5147	406	1916406.806916
23	5179	407	1915806.890952
23	5187	408	1915206.890952
23	5195	409	1914606.890952
23	5203	410	1914006.890952
23	5211	411	1913406.890952
23	5243	412	1912806.974988
23	5251	413	1912206.974988
23	5259	414	1911606.974988
23	5267	415	1911006.974988
23	5275	416	1910406.974988
23	5307	417	1909807.059024
23	5315	418	1909207.059024
23	5323	419	1908607.059024
23	5331	420	1908007.059024
23	5339	421	1907407.059024
23	5371	422	1906807.14306
23	5379	423	1906207.14306
23	5387	424	1905607.14306
23	5395	425	1905007.14306
23	5403	426	1904407.14306
23	5432	427	1903807.227096
23	5440	428	1903207.227096
23	5448	429	1902607.227096
23	5456	430	1902007.227096
23	5464	431	1901407.227096
23	5493	432	1900807.311132
23	5501	433	1900207.311132
23	5509	434	1899607.311132
23	5517	435	1899007.311132
23	5525	436	1898407.311132
23	5557	437	1897807.395168
23	5565	438	1897207.395168
23	5573	439	1896607.395168
23	5581	440	1896007.395168
23	5589	441	1895407.395168
23	5621	442	1894807.479204
23	5629	443	1894207.479204
23	5637	444	1893607.479204
23	5645	445	1893007.479204
23	5653	446	1892407.479204
23	5685	447	1891807.56324
23	5693	448	1891207.56324
23	5701	449	1890607.56324
23	5709	450	1890007.56324
23	5717	451	1889407.56324
23	5749	452	1888807.647276
23	5757	453	1888207.647276
23	5765	454	1887607.647276
23	5773	455	1887007.647276
23	5781	456	1886407.647276
23	5813	457	1885807.731312
23	5821	458	1885207.731312
23	5829	459	1884607.731312
23	5837	460	1884007.731312
23	5845	461	1883407.731312
23	5877	462	1882807.815348
23	5885	463	1882207.815348
23	5893	464	1881607.815348
23	5901	465	1881007.815348
23	5909	466	1880407.815348
23	5941	467	1879807.899384
23	5949	468	1879207.899384
23	5957	469	1878607.899384
23	5965	470	1878007.899384
23	5973	471	1877407.899384
23	6005	472	1876807.98342
23	6013	473	1876207.98342
23	6021	474	1875607.98342
23	6029	475	1875007.98342
23	6037	476	1874407.98342
23	6069	477	1873808.067456
23	6077	478	1873208.067456
23	6085	479	1872608.067456
23	6093	480	1872008.067456
23	6101	481	1871408.067456
23	6133	482	1870808.151492
23	6141	483	1870208.151492
23	6149	484	1869608.151492
23	6157	485	1869008.151492
23	6165	486	1868408.151492
23	6197	487	1867808.235528
23	6205	488	1867208.235528
23	6213	489	1866608.235528
23	6221	490	1866008.235528
23	6229	491	1865408.235528
23	6261	492	1864808.319564
23	6269	493	1864208.319564
23	6277	494	1863608.319564
23	6285	495	1863008.319564
23	6293	496	1862408.319564
23	6325	497	1861808.4036
23	6333	498	1861208.4036
23	6341	499	1860608.4036
23	6349	500	1860008.4036
23	6357	501	1859408.4036
23	6389	502	1858808.487636
23	6397	503	1858208.487636
23	6405	504	1857608.487636
23	6413	505	1857008.487636
23	6421	506	1856408.487636
23	6453	507	1855808.571672
23	6461	508	1855208.571672
23	6469	509	1854608.571672
23	6477	510	1854008.571672
23	6485	511	1853408.571672
23	6514	512	1852808.655708
23	6522	513	1852208.655708
23	6530	514	1851608.655708
23	6538	515	1851008.655708
23	6546	516	1850408.655708