version 2
run TwoNodes-0-20160309-14:48:46-14198
attr configname TwoNodes
attr datetime 20160309-14:48:46
attr experiment TwoNodes
attr inifile omnetpp.ini
attr iterationvars $0=0
attr iterationvars2 "$0=0, $repetition=0"
attr measurement $0=0
attr network P2P_Wireless_Wifi
attr processid 14198
attr repetition 0
attr replication #0
attr resultdir results
attr runnumber 0
attr seedset 0

vector 2  P2P_Wireless_Wifi.node[0].batteryStats  capacity  ETV
attr unit  mW-s
vector 9  P2P_Wireless_Wifi.node[1].batteryStats  capacity  ETV
attr unit  mW-s
2	0	0	2160000
2	0	0	2160000
2	13	1	2159400
2	165	2	2158800.314712
2	173	3	2158200.314712
2	181	4	2157600.314712
2	189	5	2157000.314712
2	197	6	2156400.314712
2	205	7	2155800.314712
2	213	8	2155200.314712
2	221	9	2154600.314712
2	229	10	2154000.314712
2	237	11	2153400.314712
2	392	12	2152800.661008
2	400	13	2152200.661008
2	408	14	2151600.661008
2	416	15	2151000.661008
2	424	16	2150400.661008
2	432	17	2149800.661008
2	440	18	2149200.661008
2	448	19	2148600.661008
2	456	20	2148000.661008
2	464	21	2147400.661008
2	472	22	2146800.661008
2	480	23	2146200.661008
2	488	24	2145600.661008
2	496	25	2145000.661008
2	652	26	2144400.97572
2	660	27	2143800.97572
2	668	28	2143200.97572
2	676	29	2142600.97572
2	835	30	2142001.290432
2	843	31	2141401.290432
2	1002	32	2140801.636728
2	1010	33	2140201.636728
2	1018	34	2139601.636728
2	1177	35	2139001.983024
2	1185	36	2138401.983024
2	1193	37	2137801.983024
2	1201	38	2137201.983024
2	1209	39	2136601.983024
2	1217	40	2136001.983024
2	1225	41	2135401.983024
2	1233	42	2134801.983024
2	1241	43	2134201.983024
2	1249	44	2133601.983024
2	1408	45	2133002.297736
2	1416	46	2132402.297736
2	1424	47	2131802.297736
2	1432	48	2131202.297736
2	1440	49	2130602.297736
2	1448	50	2130002.297736
2	1456	51	2129402.297736
2	1464	52	2128802.297736
2	1472	53	2128202.297736
2	1480	54	2127602.297736
2	1488	55	2127002.297736
2	1496	56	2126402.297736
2	1504	57	2125802.297736
2	1512	58	2125202.297736
2	1520	59	2124602.297736
2	1528	60	2124002.297736
2	1536	61	2123402.297736
2	1544	62	2122802.297736
2	1552	63	2122202.297736
2	1711	64	2121602.644032
2	1871	65	2121002.958744
2	1879	66	2120402.958744
2	1887	67	2119802.958744
2	1895	68	2119202.958744
2	1903	69	2118602.958744
2	1911	70	2118002.958744
2	1919	71	2117402.958744
2	1927	72	2116802.958744
2	1935	73	2116202.958744
2	1943	74	2115602.958744
2	1951	75	2115002.958744
2	1959	76	2114402.958744
2	1967	77	2113802.958744
2	1975	78	2113202.958744
2	1983	79	2112602.958744
2	1991	80	2112002.958744
2	1999	81	2111402.958744
2	2155	82	2110803.30504
2	2163	83	2110203.30504
2	2171	84	2109603.30504
2	2179	85	2109003.30504
2	2187	86	2108403.30504
2	2195	87	2107803.30504
2	2203	88	2107203.30504
2	2211	89	2106603.30504
2	2219	90	2106003.30504
2	2379	91	2105403.619752
2	2387	92	2104803.619752
2	2547	93	2104203.966048
2	2555	94	2103603.966048
2	2563	95	2103003.966048
2	2571	96	2102403.966048
2	2579	97	2101803.966048
2	2587	98	2101203.966048
2	2743	99	2100604.28076
2	2751	100	2100004.28076
2	2759	101	2099404.28076
2	2767	102	2098804.28076
2	2775	103	2098204.28076
2	2783	104	2097604.28076
2	2791	105	2097004.28076
2	2947	106	2096404.627056
2	2955	107	2095804.627056
2	2963	108	2095204.627056
2	2971	109	2094604.627056
2	2979	110	2094004.627056
2	2987	111	2093404.627056
2	3147	112	2092804.973352
2	3155	113	2092204.973352
2	3163	114	2091604.973352
2	3171	115	2091004.973352
2	3179	116	2090404.973352
2	3187	117	2089804.973352
2	3343	118	2089205.319648
2	3351	119	2088605.319648
2	3359	120	2088005.319648
2	3519	121	2087405.63436
2	3527	122	2086805.63436
2	3535	123	2086205.63436
2	3543	124	2085605.63436
2	3551	125	2085005.63436
2	3559	126	2084405.63436
2	3567	127	2083805.63436
2	3575	128	2083205.63436
2	3583	129	2082605.63436
2	3591	130	2082005.63436
2	3599	131	2081405.63436
2	3607	132	2080805.63436
2	3615	133	2080205.63436
2	3623	134	2079605.63436
2	3631	135	2079005.63436
2	3639	136	2078405.63436
2	3647	137	2077805.63436
2	3655	138	2077205.63436
2	3663	139	2076605.63436
2	3671	140	2076005.63436
2	3679	141	2075405.63436
2	3687	142	2074805.63436
2	3695	143	2074205.63436
2	3703	144	2073605.63436
2	3711	145	2073005.63436
2	3870	146	2072405.980656
2	4030	147	2071806.295368
2	4038	148	2071206.295368
2	4046	149	2070606.295368
2	4054	150	2070006.295368
2	4062	151	2069406.295368
2	4373	152	2068806.956376
2	4381	153	2068206.956376
2	4537	154	2067607.302672
2	4545	155	2067007.302672
2	4553	156	2066407.302672
2	4561	157	2065807.302672
2	4569	158	2065207.302672
2	4577	159	2064607.302672
2	4585	160	2064007.302672
2	4593	161	2063407.302672
2	4601	162	2062807.302672
2	4609	163	2062207.302672
2	4617	164	2061607.302672
2	4625	165	2061007.302672
2	4633	166	2060407.302672
2	4641	167	2059807.302672
2	4649	168	2059207.302672
2	4657	169	2058607.302672
2	4665	170	2058007.302672
2	4673	171	2057407.302672
2	4681	172	2056807.302672
2	4837	173	2056207.617384
2	4845	174	2055607.617384
2	4853	175	2055007.617384
2	4861	176	2054407.617384
2	4869	177	2053807.617384
2	5028	178	2053207.932096
2	5036	179	2052607.932096
2	5044	180	2052007.932096
2	5052	181	2051407.932096
2	5212	182	2050808.278392
2	5220	183	2050208.278392
2	5228	184	2049608.278392
2	5236	185	2049008.278392
2	5244	186	2048408.278392
2	5252	187	2047808.278392
2	5260	188	2047208.278392
2	5420	189	2046608.624688
2	5579	190	2046008.9394
2	5587	191	2045408.9394
2	5595	192	2044808.9394
2	5603	193	2044208.9394
2	5762	194	2043609.285696
2	5770	195	2043009.285696
2	5778	196	2042409.285696
2	5786	197	2041809.285696
2	5794	198	2041209.285696
2	5802	199	2040609.285696
2	5810	200	2040009.285696
2	5962	201	2039409.631992
2	5970	202	2038809.631992
2	6129	203	2038209.946704
2	6137	204	2037609.946704
2	6145	205	2037009.946704
2	6153	206	2036409.946704
2	6161	207	2035809.946704
2	6169	208	2035209.946704
2	6177	209	2034609.946704
2	6185	210	2034009.946704
2	6193	211	2033409.946704
2	6201	212	2032809.946704
2	6209	213	2032209.946704
2	6217	214	2031609.946704
2	6225	215	2031009.946704
2	6233	216	2030409.946704
2	6241	217	2029809.946704
2	6249	218	2029209.946704
2	6257	219	2028609.946704
2	6265	220	2028009.946704
2	6273	221	2027409.946704
2	6281	222	2026809.946704
2	6289	223	2026209.946704
2	6297	224	2025609.946704
2	6305	225	2025009.946704
2	6313	226	2024409.946704
2	6321	227	2023809.946704
2	6329	228	2023209.946704
2	6337	229	2022609.946704
2	6647	230	2022010.607712
2	6655	231	2021410.607712
2	6663	232	2020810.607712
2	6671	233	2020210.607712
2	6679	234	2019610.607712
2	6687	235	2019010.607712
2	6695	236	2018410.607712
2	6703	237	2017810.607712
2	6711	238	2017210.607712
2	6719	239	2016610.607712
2	6727	240	2016010.607712
2	6735	241	2015410.607712
2	6743	242	2014810.607712
2	6751	243	2014210.607712
2	6759	244	2013610.607712
2	6767	245	2013010.607712
2	6775	246	2012410.607712
2	6783	247	2011810.607712
2	6791	248	2011210.607712
2	6799	249	2010610.607712
2	6807	250	2010010.607712
2	6815	251	2009410.607712
2	6974	252	2008810.954008
2	6982	253	2008210.954008
2	6990	254	2007610.954008
2	6998	255	2007010.954008
2	7303	256	2006411.615016
2	7311	257	2005811.615016
2	7470	258	2005211.961312
2	7478	259	2004611.961312
2	7486	260	2004011.961312
2	7645	261	2003412.307608
2	7653	262	2002812.307608
2	7661	263	2002212.307608
2	7669	264	2001612.307608
2	7677	265	2001012.307608
2	7685	266	2000412.307608
2	7693	267	1999812.307608
2	7701	268	1999212.307608
2	7709	269	1998612.307608
2	7717	270	1998012.307608
2	7725	271	1997412.307608
2	7733	272	1996812.307608
2	7741	273	1996212.307608
2	7749	274	1995612.307608
2	7757	275	1995012.307608
2	7765	276	1994412.307608
2	7773	277	1993812.307608
2	7781	278	1993212.307608
2	7789	279	1992612.307608
2	7797	280	1992012.307608
2	7805	281	1991412.307608
2	7813	282	1990812.307608
2	7821	283	1990212.307608
2	7980	284	1989612.62232
2	7988	285	1989012.62232
2	7996	286	1988412.62232
2	8004	287	1987812.62232
2	8012	288	1987212.62232
2	8020	289	1986612.62232
2	8179	290	1986012.968616
2	8187	291	1985412.968616
2	8195	292	1984812.968616
2	8203	293	1984212.968616
2	8363	294	1983613.283328
2	8371	295	1983013.283328
2	8379	296	1982413.283328
2	8538	297	1981813.629624
2	8546	298	1981213.629624
2	8554	299	1980613.629624
2	8562	300	1980013.629624
2	8570	301	1979413.629624
2	8578	302	1978813.629624
2	8586	303	1978213.629624
2	8594	304	1977613.629624
2	8602	305	1977013.629624
2	8761	306	1976413.97592
2	8769	307	1975813.97592
2	8777	308	1975213.97592
2	8785	309	1974613.97592
2	8793	310	1974013.97592
2	8801	311	1973413.97592
2	8809	312	1972813.97592
2	8817	313	1972213.97592
2	8976	314	1971614.290632
2	8984	315	1971014.290632
2	8992	316	1970414.290632
2	9000	317	1969814.290632
2	9156	318	1969214.636928
2	9164	319	1968614.636928
2	9172	320	1968014.636928
2	9180	321	1967414.636928
2	9188	322	1966814.636928
2	9196	323	1966214.636928
2	9204	324	1965614.636928
2	9359	325	1965014.95164
2	9367	326	1964414.95164
2	9375	327	1963814.95164
2	9383	328	1963214.95164
2	9391	329	1962614.95164
2	9399	330	1962014.95164
2	9407	331	1961414.95164
2	9415	332	1960814.95164
2	9423	333	1960214.95164
2	9583	334	1959615.297936
2	9591	335	1959015.297936
2	9599	336	1958415.297936
2	9607	337	1957815.297936
2	9615	338	1957215.297936
2	9623	339	1956615.297936
2	9783	340	1956015.644232
2	9791	341	1955415.644232
2	9799	342	1954815.644232
2	9807	343	1954215.644232
2	9815	344	1953615.644232
2	9823	345	1953015.644232
2	9831	346	1952415.644232
2	9839	347	1951815.644232
2	9847	348	1951215.644232
2	10007	349	1950615.990528
2	10015	350	1950015.990528
2	10023	351	1949415.990528
2	10031	352	1948815.990528
2	10039	353	1948215.990528
2	10194	354	1947616.30524
2	10202	355	1947016.30524
2	10210	356	1946416.30524
2	10218	357	1945816.30524
2	10378	358	1945216.651536
2	10386	359	1944616.651536
2	10394	360	1944016.651536
2	10402	361	1943416.651536
2	10561	362	1942816.966248
2	10569	363	1942216.966248
2	10728	364	1941617.28096
2	10736	365	1941017.28096
2	10744	366	1940417.28096
2	10752	367	1939817.28096
2	10760	368	1939217.28096
2	10916	369	1938617.627256
2	10924	370	1938017.627256
2	10932	371	1937417.627256
2	10940	372	1936817.627256
2	10948	373	1936217.627256
2	10956	374	1935617.627256
2	10964	375	1935017.627256
2	10972	376	1934417.627256
2	10980	377	1933817.627256
2	10988	378	1933217.627256
2	10996	379	1932617.627256
2	11004	380	1932017.627256
2	11012	381	1931417.627256
2	11020	382	1930817.627256
2	11028	383	1930217.627256
2	11036	384	1929617.627256
2	11192	385	1929017.941968
2	11200	386	1928417.941968
2	11208	387	1927817.941968
2	11216	388	1927217.941968
2	11224	389	1926617.941968
2	11383	390	1926018.288264
2	11542	391	1925418.602976
2	11698	392	1924818.917688
2	11706	393	1924218.917688
2	11714	394	1923618.917688
2	11722	395	1923018.917688
2	11730	396	1922418.917688
2	11738	397	1921818.917688
2	11746	398	1921218.917688
2	11754	399	1920618.917688
2	11762	400	1920018.917688
2	11770	401	1919418.917688
2	11929	402	1918819.2324
2	11937	403	1918219.2324
2	11945	404	1917619.2324
2	11953	405	1917019.2324
2	11961	406	1916419.2324
2	11969	407	1915819.2324
2	11977	408	1915219.2324
2	11985	409	1914619.2324
2	11993	410	1914019.2324
2	12001	411	1913419.2324
2	12157	412	1912819.578696
2	12165	413	1912219.578696
2	12173	414	1911619.578696
2	12181	415	1911019.578696
2	12189	416	1910419.578696
2	12197	417	1909819.578696
2	12205	418	1909219.578696
2	12213	419	1908619.578696
2	12221	420	1908019.578696
2	12229	421	1907419.578696
2	12237	422	1906819.578696
2	12245	423	1906219.578696
2	12253	424	1905619.578696
2	12261	425	1905019.578696
2	12269	426	1904419.578696
2	12428	427	1903819.893408
2	12436	428	1903219.893408
2	12444	429	1902619.893408
2	12452	430	1902019.893408
2	12460	431	1901419.893408
2	12468	432	1900819.893408
2	12476	433	1900219.893408
2	12484	434	1899619.893408
2	12492	435	1899019.893408
2	12500	436	1898419.893408
2	12508	437	1897819.893408
2	12516	438	1897219.893408
2	12524	439	1896619.893408
2	12532	440	1896019.893408
2	12691	441	1895420.239704
2	12699	442	1894820.239704
2	12707	443	1894220.239704
2	12715	444	1893620.239704
2	12723	445	1893020.239704
2	12731	446	1892420.239704
2	12739	447	1891820.239704
2	12899	448	1891220.554416
2	12907	449	1890620.554416
2	12915	450	1890020.554416
2	12923	451	1889420.554416
2	12931	452	1888820.554416
2	12939	453	1888220.554416
2	12947	454	1887620.554416
2	12955	455	1887020.554416
2	12963	456	1886420.554416
2	12971	457	1885820.554416
2	13127	458	1885220.900712
2	13135	459	1884620.900712
2	13143	460	1884020.900712
2	13151	461	1883420.900712
2	13159	462	1882820.900712
2	13167	463	1882220.900712
2	13175	464	1881620.900712
2	13183	465	1881020.900712
2	13191	466	1880420.900712
2	13199	467	1879820.900712
2	13207	468	1879220.900712
2	13366	469	1878621.215424
2	13374	470	1878021.215424
2	13833	471	1877422.191144
2	13841	472	1876822.191144
2	13849	473	1876222.191144
2	13857	474	1875622.191144
2	13865	475	1875022.191144
2	13873	476	1874422.191144
2	13881	477	1873822.191144
2	13889	478	1873222.191144
2	13897	479	1872622.191144
2	13905	480	1872022.191144
2	13913	481	1871422.191144
2	13921	482	1870822.191144
2	13929	483	1870222.191144
2	13937	484	1869622.191144
2	13945	485	1869022.191144
2	13953	486	1868422.191144
2	14109	487	1867822.505856
2	14117	488	1867222.505856
2	14125	489	1866622.505856
2	14133	490	1866022.505856
2	14141	491	1865422.505856
2	14149	492	1864822.505856
2	14157	493	1864222.505856
2	14165	494	1863622.505856
2	14173	495	1863022.505856
2	14332	496	1862422.852152
2	14340	497	1861822.852152
2	14348	498	1861222.852152
2	14356	499	1860622.852152
2	14364	500	1860022.852152
2	14372	501	1859422.852152
2	14380	502	1858822.852152
2	14388	503	1858222.852152
2	14396	504	1857622.852152
2	14404	505	1857022.852152
2	14412	506	1856422.852152
2	14420	507	1855822.852152
2	14428	508	1855222.852152
2	14583	509	1854623.198448
2	14739	510	1854023.51316
2	14747	511	1853423.51316
2	14755	512	1852823.51316
2	14763	513	1852223.51316
2	14771	514	1851623.51316
2	14779	515	1851023.51316
2	14787	516	1850423.51316
2	14795	517	1849823.51316
2	14803	518	1849223.51316
2	14811	519	1848623.51316
2	14819	520	1848023.51316
2	14827	521	1847423.51316
2	14835	522	1846823.51316
2	14843	523	1846223.51316
2	14851	524	1845623.51316
2	14859	525	1845023.51316
2	14867	526	1844423.51316
2	15027	527	1843823.859456
2	15035	528	1843223.859456
2	15043	529	1842623.859456
2	15203	530	1842024.174168
2	15211	531	1841424.174168
2	15219	532	1840824.174168
2	15227	533	1840224.174168
2	15235	534	1839624.174168
2	15243	535	1839024.174168
2	15251	536	1838424.174168
2	15259	537	1837824.174168
2	15267	538	1837224.174168
2	15275	539	1836624.174168
2	15283	540	1836024.174168
2	15291	541	1835424.174168
2	15299	542	1834824.174168
2	15307	543	1834224.174168
2	15315	544	1833624.174168
2	15323	545	1833024.174168
2	15482	546	1832424.520464
2	15490	547	1831824.520464
2	15498	548	1831224.520464
2	15506	549	1830624.520464
2	15514	550	1830024.520464
2	15673	551	1829424.835176
2	15681	552	1828824.835176
2	15689	553	1828224.835176
2	15697	554	1827624.835176
2	15705	555	1827024.835176
2	15713	556	1826424.835176
2	15721	557	1825824.835176
2	15729	558	1825224.835176
2	15737	559	1824624.835176
2	15745	560	1824024.835176
2	15753	561	1823424.835176
2	15761	562	1822824.835176
2	15769	563	1822224.835176
2	15777	564	1821624.835176
2	15785	565	1821024.835176
2	15793	566	1820424.835176
2	15801	567	1819824.835176
2	15809	568	1819224.835176
2	15817	569	1818624.835176
2	15825	570	1818024.835176
2	15833	571	1817424.835176
2	15841	572	1816824.835176
2	15997	573	1816225.181472
2	16005	574	1815625.181472
2	16165	575	1815025.496184
2	16173	576	1814425.496184
2	16484	577	1813826.157192
2	16644	578	1813226.471904
2	16652	579	1812626.471904
2	16812	580	1812026.8182
2	16820	581	1811426.8182
2	16828	582	1810826.8182
2	16836	583	1810226.8182
2	16844	584	1809626.8182
2	16852	585	1809026.8182
2	16860	586	1808426.8182
2	16868	587	1807826.8182
2	17027	588	1807227.132912
2	17035	589	1806627.132912
2	17043	590	1806027.132912
2	17051	591	1805427.132912
2	17059	592	1804827.132912
2	17067	593	1804227.132912
2	17075	594	1803627.132912
2	17083	595	1803027.132912
2	17091	596	1802427.132912
2	17099	597	1801827.132912
2	17107	598	1801227.132912
2	17115	599	1800627.132912
9	0	0	2160000
9	0	0	2160000
9	14	1	2159400
9	166	2	2158800.346296
9	174	3	2158200.346296
9	182	4	2157600.346296
9	190	5	2157000.346296
9	198	6	2156400.346296
9	206	7	2155800.346296
9	214	8	2155200.346296
9	222	9	2154600.346296
9	230	10	2154000.346296
9	238	11	2153400.346296
9	393	12	2152800.661008
9	401	13	2152200.661008
9	409	14	2151600.661008
9	417	15	2151000.661008
9	425	16	2150400.661008
9	433	17	2149800.661008
9	441	18	2149200.661008
9	449	19	2148600.661008
9	457	20	2148000.661008
9	465	21	2147400.661008
9	473	22	2146800.661008
9	481	23	2146200.661008
9	489	24	2145600.661008
9	497	25	2145000.661008
9	653	26	2144401.007304
9	661	27	2143801.007304
9	669	28	2143201.007304
9	677	29	2142601.007304
9	836	30	2142001.3536
9	844	31	2141401.3536
9	1003	32	2140801.668312
9	1011	33	2140201.668312
9	1019	34	2139601.668312
9	1178	35	2139001.983024
9	1186	36	2138401.983024
9	1194	37	2137801.983024
9	1202	38	2137201.983024
9	1210	39	2136601.983024
9	1218	40	2136001.983024
9	1226	41	2135401.983024
9	1234	42	2134801.983024
9	1242	43	2134201.983024
9	1250	44	2133601.983024
9	1409	45	2133002.32932
9	1417	46	2132402.32932
9	1425	47	2131802.32932
9	1433	48	2131202.32932
9	1441	49	2130602.32932
9	1449	50	2130002.32932
9	1457	51	2129402.32932
9	1465	52	2128802.32932
9	1473	53	2128202.32932
9	1481	54	2127602.32932
9	1489	55	2127002.32932
9	1497	56	2126402.32932
9	1505	57	2125802.32932
9	1513	58	2125202.32932
9	1521	59	2124602.32932
9	1529	60	2124002.32932
9	1537	61	2123402.32932
9	1545	62	2122802.32932
9	1553	63	2122202.32932
9	1712	64	2121602.644032
9	1872	65	2121002.990328
9	1880	66	2120402.990328
9	1888	67	2119802.990328
9	1896	68	2119202.990328
9	1904	69	2118602.990328
9	1912	70	2118002.990328
9	1920	71	2117402.990328
9	1928	72	2116802.990328
9	1936	73	2116202.990328
9	1944	74	2115602.990328
9	1952	75	2115002.990328
9	1960	76	2114402.990328
9	1968	77	2113802.990328
9	1976	78	2113202.990328
9	1984	79	2112602.990328
9	1992	80	2112002.990328
9	2000	81	2111402.990328
9	2156	82	2110803.30504
9	2164	83	2110203.30504
9	2172	84	2109603.30504
9	2180	85	2109003.30504
9	2188	86	2108403.30504
9	2196	87	2107803.30504
9	2204	88	2107203.30504
9	2212	89	2106603.30504
9	2220	90	2106003.30504
9	2380	91	2105403.651336
9	2388	92	2104803.651336
9	2548	93	2104203.966048
9	2556	94	2103603.966048
9	2564	95	2103003.966048
9	2572	96	2102403.966048
9	2580	97	2101803.966048
9	2588	98	2101203.966048
9	2744	99	2100604.312344
9	2752	100	2100004.312344
9	2760	101	2099404.312344
9	2768	102	2098804.312344
9	2776	103	2098204.312344
9	2784	104	2097604.312344
9	2792	105	2097004.312344
9	2948	106	2096404.627056
9	2956	107	2095804.627056
9	2964	108	2095204.627056
9	2972	109	2094604.627056
9	2980	110	2094004.627056
9	2988	111	2093404.627056
9	3148	112	2092804.941768
9	3156	113	2092204.941768
9	3164	114	2091604.941768
9	3172	115	2091004.941768
9	3180	116	2090404.941768
9	3188	117	2089804.941768
9	3344	118	2089205.25648
9	3352	119	2088605.25648
9	3360	120	2088005.25648
9	3520	121	2087405.602776
9	3528	122	2086805.602776
9	3536	123	2086205.602776
9	3544	124	2085605.602776
9	3552	125	2085005.602776
9	3560	126	2084405.602776
9	3568	127	2083805.602776
9	3576	128	2083205.602776
9	3584	129	2082605.602776
9	3592	130	2082005.602776
9	3600	131	2081405.602776
9	3608	132	2080805.602776
9	3616	133	2080205.602776
9	3624	134	2079605.602776
9	3632	135	2079005.602776
9	3640	136	2078405.602776
9	3648	137	2077805.602776
9	3656	138	2077205.602776
9	3664	139	2076605.602776
9	3672	140	2076005.602776
9	3680	141	2075405.602776
9	3688	142	2074805.602776
9	3696	143	2074205.602776
9	3704	144	2073605.602776
9	3712	145	2073005.602776
9	3871	146	2072405.917488
9	4031	147	2071806.263784
9	4039	148	2071206.263784
9	4047	149	2070606.263784
9	4055	150	2070006.263784
9	4063	151	2069406.263784
9	4374	152	2068806.924792
9	4382	153	2068206.924792
9	4538	154	2067607.239504
9	4546	155	2067007.239504
9	4554	156	2066407.239504
9	4562	157	2065807.239504
9	4570	158	2065207.239504
9	4578	159	2064607.239504
9	4586	160	2064007.239504
9	4594	161	2063407.239504
9	4602	162	2062807.239504
9	4610	163	2062207.239504
9	4618	164	2061607.239504
9	4626	165	2061007.239504
9	4634	166	2060407.239504
9	4642	167	2059807.239504
9	4650	168	2059207.239504
9	4658	169	2058607.239504
9	4666	170	2058007.239504
9	4674	171	2057407.239504
9	4682	172	2056807.239504
9	4838	173	2056207.5858
9	4846	174	2055607.5858
9	4854	175	2055007.5858
9	4862	176	2054407.5858
9	4870	177	2053807.5858
9	5029	178	2053207.932096
9	5037	179	2052607.932096
9	5045	180	2052007.932096
9	5053	181	2051407.932096
9	5213	182	2050808.246808
9	5221	183	2050208.246808
9	5229	184	2049608.246808
9	5237	185	2049008.246808
9	5245	186	2048408.246808
9	5253	187	2047808.246808
9	5261	188	2047208.246808
9	5421	189	2046608.56152
9	5580	190	2046008.907816
9	5588	191	2045408.907816
9	5596	192	2044808.907816
9	5604	193	2044208.907816
9	5763	194	2043609.222528
9	5771	195	2043009.222528
9	5779	196	2042409.222528
9	5787	197	2041809.222528
9	5795	198	2041209.222528
9	5803	199	2040609.222528
9	5811	200	2040009.222528
9	5963	201	2039409.53724
9	5971	202	2038809.53724
9	6130	203	2038209.883536
9	6138	204	2037609.883536
9	6146	205	2037009.883536
9	6154	206	2036409.883536
9	6162	207	2035809.883536
9	6170	208	2035209.883536
9	6178	209	2034609.883536
9	6186	210	2034009.883536
9	6194	211	2033409.883536
9	6202	212	2032809.883536
9	6210	213	2032209.883536
9	6218	214	2031609.883536
9	6226	215	2031009.883536
9	6234	216	2030409.883536
9	6242	217	2029809.883536
9	6250	218	2029209.883536
9	6258	219	2028609.883536
9	6266	220	2028009.883536
9	6274	221	2027409.883536
9	6282	222	2026809.883536
9	6290	223	2026209.883536
9	6298	224	2025609.883536
9	6306	225	2025009.883536
9	6314	226	2024409.883536
9	6322	227	2023809.883536
9	6330	228	2023209.883536
9	6338	229	2022609.883536
9	6648	230	2022010.544544
9	6656	231	2021410.544544
9	6664	232	2020810.544544
9	6672	233	2020210.544544
9	6680	234	2019610.544544
9	6688	235	2019010.544544
9	6696	236	2018410.544544
9	6704	237	2017810.544544
9	6712	238	2017210.544544
9	6720	239	2016610.544544
9	6728	240	2016010.544544
9	6736	241	2015410.544544
9	6744	242	2014810.544544
9	6752	243	2014210.544544
9	6760	244	2013610.544544
9	6768	245	2013010.544544
9	6776	246	2012410.544544
9	6784	247	2011810.544544
9	6792	248	2011210.544544
9	6800	249	2010610.544544
9	6808	250	2010010.544544
9	6816	251	2009410.544544
9	6975	252	2008810.859256
9	6983	253	2008210.859256
9	6991	254	2007610.859256
9	6999	255	2007010.859256
9	7304	256	2006411.520264
9	7312	257	2005811.520264
9	7471	258	2005211.834976
9	7479	259	2004611.834976
9	7487	260	2004011.834976
9	7646	261	2003412.149688
9	7654	262	2002812.149688
9	7662	263	2002212.149688
9	7670	264	2001612.149688
9	7678	265	2001012.149688
9	7686	266	2000412.149688
9	7694	267	1999812.149688
9	7702	268	1999212.149688
9	7710	269	1998612.149688
9	7718	270	1998012.149688
9	7726	271	1997412.149688
9	7734	272	1996812.149688
9	7742	273	1996212.149688
9	7750	274	1995612.149688
9	7758	275	1995012.149688
9	7766	276	1994412.149688
9	7774	277	1993812.149688
9	7782	278	1993212.149688
9	7790	279	1992612.149688
9	7798	280	1992012.149688
9	7806	281	1991412.149688
9	7814	282	1990812.149688
9	7822	283	1990212.149688
9	7981	284	1989612.495984
9	7989	285	1989012.495984
9	7997	286	1988412.495984
9	8005	287	1987812.495984
9	8013	288	1987212.495984
9	8021	289	1986612.495984
9	8180	290	1986012.810696
9	8188	291	1985412.810696
9	8196	292	1984812.810696
9	8204	293	1984212.810696
9	8364	294	1983613.156992
9	8372	295	1983013.156992
9	8380	296	1982413.156992
9	8539	297	1981813.471704
9	8547	298	1981213.471704
9	8555	299	1980613.471704
9	8563	300	1980013.471704
9	8571	301	1979413.471704
9	8579	302	1978813.471704
9	8587	303	1978213.471704
9	8595	304	1977613.471704
9	8603	305	1977013.471704
9	8762	306	1976413.786416
9	8770	307	1975813.786416
9	8778	308	1975213.786416
9	8786	309	1974613.786416
9	8794	310	1974013.786416
9	8802	311	1973413.786416
9	8810	312	1972813.786416
9	8818	313	1972213.786416
9	8977	314	1971614.132712
9	8985	315	1971014.132712
9	8993	316	1970414.132712
9	9001	317	1969814.132712
9	9157	318	1969214.447424
9	9165	319	1968614.447424
9	9173	320	1968014.447424
9	9181	321	1967414.447424
9	9189	322	1966814.447424
9	9197	323	1966214.447424
9	9205	324	1965614.447424
9	9360	325	1965014.79372
9	9368	326	1964414.79372
9	9376	327	1963814.79372
9	9384	328	1963214.79372
9	9392	329	1962614.79372
9	9400	330	1962014.79372
9	9408	331	1961414.79372
9	9416	332	1960814.79372
9	9424	333	1960214.79372
9	9584	334	1959615.108432
9	9592	335	1959015.108432
9	9600	336	1958415.108432
9	9608	337	1957815.108432
9	9616	338	1957215.108432
9	9624	339	1956615.108432
9	9784	340	1956015.423144
9	9792	341	1955415.423144
9	9800	342	1954815.423144
9	9808	343	1954215.423144
9	9816	344	1953615.423144
9	9824	345	1953015.423144
9	9832	346	1952415.423144
9	9840	347	1951815.423144
9	9848	348	1951215.423144
9	10008	349	1950615.737856
9	10016	350	1950015.737856
9	10024	351	1949415.737856
9	10032	352	1948815.737856
9	10040	353	1948215.737856
9	10195	354	1947616.084152
9	10203	355	1947016.084152
9	10211	356	1946416.084152
9	10219	357	1945816.084152
9	10379	358	1945216.398864
9	10387	359	1944616.398864
9	10395	360	1944016.398864
9	10403	361	1943416.398864
9	10562	362	1942816.74516
9	10570	363	1942216.74516
9	10729	364	1941617.091456
9	10737	365	1941017.091456
9	10745	366	1940417.091456
9	10753	367	1939817.091456
9	10761	368	1939217.091456
9	10917	369	1938617.406168
9	10925	370	1938017.406168
9	10933	371	1937417.406168
9	10941	372	1936817.406168
9	10949	373	1936217.406168
9	10957	374	1935617.406168
9	10965	375	1935017.406168
9	10973	376	1934417.406168
9	10981	377	1933817.406168
9	10989	378	1933217.406168
9	10997	379	1932617.406168
9	11005	380	1932017.406168
9	11013	381	1931417.406168
9	11021	382	1930817.406168
9	11029	383	1930217.406168
9	11037	384	1929617.406168
9	11193	385	1929017.752464
9	11201	386	1928417.752464
9	11209	387	1927817.752464
9	11217	388	1927217.752464
9	11225	389	1926617.752464
9	11384	390	1926018.067176
9	11543	391	1925418.413472
9	11699	392	1924818.759768
9	11707	393	1924218.759768
9	11715	394	1923618.759768
9	11723	395	1923018.759768
9	11731	396	1922418.759768
9	11739	397	1921818.759768
9	11747	398	1921218.759768
9	11755	399	1920618.759768
9	11763	400	1920018.759768
9	11771	401	1919418.759768
9	11930	402	1918819.106064
9	11938	403	1918219.106064
9	11946	404	1917619.106064
9	11954	405	1917019.106064
9	11962	406	1916419.106064
9	11970	407	1915819.106064
9	11978	408	1915219.106064
9	11986	409	1914619.106064
9	11994	410	1914019.106064
9	12002	411	1913419.106064
9	12158	412	1912819.420776
9	12166	413	1912219.420776
9	12174	414	1911619.420776
9	12182	415	1911019.420776
9	12190	416	1910419.420776
9	12198	417	1909819.420776
9	12206	418	1909219.420776
9	12214	419	1908619.420776
9	12222	420	1908019.420776
9	12230	421	1907419.420776
9	12238	422	1906819.420776
9	12246	423	1906219.420776
9	12254	424	1905619.420776
9	12262	425	1905019.420776
9	12270	426	1904419.420776
9	12429	427	1903819.767072
9	12437	428	1903219.767072
9	12445	429	1902619.767072
9	12453	430	1902019.767072
9	12461	431	1901419.767072
9	12469	432	1900819.767072
9	12477	433	1900219.767072
9	12485	434	1899619.767072
9	12493	435	1899019.767072
9	12501	436	1898419.767072
9	12509	437	1897819.767072
9	12517	438	1897219.767072
9	12525	439	1896619.767072
9	12533	440	1896019.767072
9	12692	441	1895420.081784
9	12700	442	1894820.081784
9	12708	443	1894220.081784
9	12716	444	1893620.081784
9	12724	445	1893020.081784
9	12732	446	1892420.081784
9	12740	447	1891820.081784
9	12900	448	1891220.42808
9	12908	449	1890620.42808
9	12916	450	1890020.42808
9	12924	451	1889420.42808
9	12932	452	1888820.42808
9	12940	453	1888220.42808
9	12948	454	1887620.42808
9	12956	455	1887020.42808
9	12964	456	1886420.42808
9	12972	457	1885820.42808
9	13128	458	1885220.742792
9	13136	459	1884620.742792
9	13144	460	1884020.742792
9	13152	461	1883420.742792
9	13160	462	1882820.742792
9	13168	463	1882220.742792
9	13176	464	1881620.742792
9	13184	465	1881020.742792
9	13192	466	1880420.742792
9	13200	467	1879820.742792
9	13208	468	1879220.742792
9	13367	469	1878621.089088
9	13375	470	1878021.089088
9	13834	471	1877422.096392
9	13842	472	1876822.096392
9	13850	473	1876222.096392
9	13858	474	1875622.096392
9	13866	475	1875022.096392
9	13874	476	1874422.096392
9	13882	477	1873822.096392
9	13890	478	1873222.096392
9	13898	479	1872622.096392
9	13906	480	1872022.096392
9	13914	481	1871422.096392
9	13922	482	1870822.096392
9	13930	483	1870222.096392
9	13938	484	1869622.096392
9	13946	485	1869022.096392
9	13954	486	1868422.096392
9	14110	487	1867822.442688
9	14118	488	1867222.442688
9	14126	489	1866622.442688
9	14134	490	1866022.442688
9	14142	491	1865422.442688
9	14150	492	1864822.442688
9	14158	493	1864222.442688
9	14166	494	1863622.442688
9	14174	495	1863022.442688
9	14333	496	1862422.7574
9	14341	497	1861822.7574
9	14349	498	1861222.7574
9	14357	499	1860622.7574
9	14365	500	1860022.7574
9	14373	501	1859422.7574
9	14381	502	1858822.7574
9	14389	503	1858222.7574
9	14397	504	1857622.7574
9	14405	505	1857022.7574
9	14413	506	1856422.7574
9	14421	507	1855822.7574
9	14429	508	1855222.7574
9	14584	509	1854623.072112
9	14740	510	1854023.418408
9	14748	511	1853423.418408
9	14756	512	1852823.418408
9	14764	513	1852223.418408
9	14772	514	1851623.418408
9	14780	515	1851023.418408
9	14788	516	1850423.418408
9	14796	517	1849823.418408
9	14804	518	1849223.418408
9	14812	519	1848623.418408
9	14820	520	1848023.418408
9	14828	521	1847423.418408
9	14836	522	1846823.418408
9	14844	523	1846223.418408
9	14852	524	1845623.418408
9	14860	525	1845023.418408
9	14868	526	1844423.418408
9	15028	527	1843823.73312
9	15036	528	1843223.73312
9	15044	529	1842623.73312
9	15204	530	1842024.079416
9	15212	531	1841424.079416
9	15220	532	1840824.079416
9	15228	533	1840224.079416
9	15236	534	1839624.079416
9	15244	535	1839024.079416